
                                 *****************
                                 * O   R   C   A *
                                 *****************

           --- An Ab Initio, DFT and Semiempirical electronic structure package ---

                  #######################################################
                  #                        -***-                        #
                  #  Department of molecular theory and spectroscopy    #
                  #              Directorship: Frank Neese              #
                  # Max Planck Institute for Chemical Energy Conversion #
                  #                  D-45470 Muelheim/Ruhr              #
                  #                       Germany                       #
                  #                                                     #
                  #                  All rights reserved                #
                  #                        -***-                        #
                  #######################################################


                         Program Version 3.0.3 - RELEASE   -


 With contributions from (in alphabetic order):
   Ute Becker             : Parallelization
   Dmytro Bykov           : SCF Hessian
   Dmitry Ganyushin       : Spin-Orbit,Spin-Spin,Magnetic field MRCI
   Andreas Hansen         : Spin unrestricted coupled pair/coupled cluster methods
   Dimitrios Liakos       : Extrapolation schemes; parallel MDCI
   Robert Izsak           : Overlap fitted RIJCOSX, COSX-SCS-MP3
   Christian Kollmar      : KDIIS, OOCD, Brueckner-CCSD(T), CCSD density
   Simone Kossmann        : Meta GGA functionals, TD-DFT gradient, OOMP2, MP2 Hessian
   Taras Petrenko         : DFT Hessian,TD-DFT gradient, ASA and ECA modules, normal mode analysis, Resonance Raman, ABS, FL, XAS/XES, NRVS
   Christoph Reimann      : Effective Core Potentials
   Michael Roemelt        : Restricted open shell CIS
   Christoph Riplinger    : Improved optimizer, TS searches, QM/MM, DLPNO-CCSD
   Barbara Sandhoefer     : DKH picture change effects
   Igor Schapiro          : Molecular dynamics
   Kantharuban Sivalingam : CASSCF convergence, NEVPT2
   Boris Wezisla          : Elementary symmetry handling
   Frank Wennmohs         : Technical directorship


 We gratefully acknowledge several colleagues who have allowed us to
 interface, adapt or use parts of their codes:
   Stefan Grimme, W. Hujo, H. Kruse, T. Risthaus : VdW corrections, initial TS optimization,
                                                   DFT functionals, gCP
   Ed Valeev                                     : LibInt (2-el integral package), F12 methods
   Garnet Chan, S. Sharma, R. Olivares           : DMRG
   Ulf Ekstrom                                   : XCFun DFT Library
   Mihaly Kallay                                 : mrcc  (arbitrary order and MRCC methods)
   Andreas Klamt, Michael Diedenhofen            : otool_cosmo (COSMO solvation model)
   Frank Weinhold                                : gennbo (NPA and NBO analysis)
   Christopher J. Cramer and Donald G. Truhlar   : smd solvation model


 Your calculation uses the libint2 library for the computation of 2-el integrals
 For citations please refer to: http://libint.valeyev.net

 This ORCA versions uses:
   CBLAS   interface :  Fast vector & matrix operations
   LAPACKE interface :  Fast linear algebra routines


Your calculation utilizes the basis: Ahlrichs-VDZ
Cite in your paper:
H - Kr: A. Schaefer, H. Horn and R. Ahlrichs, J. Chem. Phys. 97, 2571 (1992).

Your calculation utilizes the basis: Ahlrichs SVPalls1+f
Cite in your paper:
Rb - Xe: A. Schaefer, C. Huber and R. Ahlrichs, J. Chem. Phys. 100, 5829 (1994).

Your calculation utilizes pol. fcns from basis: Ahlrichs polarization
Cite in your paper:
H - Kr: R. Ahlrichs and coworkers, unpublished

================================================================================
                                        WARNINGS
                       Please study these warnings very carefully!
================================================================================

WARNING: The RI method has been chosen with no auxiliary basis (AUX or GTOAUX in BASIS block)
Your calculation utilizes aux bases from the TurboMole library
Cite in your paper:
The Ahlrichs auxiliary basis sets were obtained from the TurboMole
basis set library under ftp.chemie.uni-karlsruhe.de/pub/jbasen
H - Ba; Hf - At:
      1) K. Eichkorn, O. Treutler, H. Ohm, M. Haser and R. Ahlrichs,
         Chem. Phys. Letters 240, 283 (1995).
      2) K. Eichkorn, F. Weigend, O. Treutler, R. Ahlrichs,
         Theor. Chem. Acc. 97, 119 (1997)
Rb-I : uncontracted bases constructed by FN 'by inspection' (01/2002)


        Standard SV/J expansion basis used (GTOAUX=VDZ_J)

Now building the actual basis set


INFO   : the flag for use of LIBINT has been found!

Your calculation utilizes the basis: Ahlrichs-VDZ
Cite in your paper:
H - Kr: A. Schaefer, H. Horn and R. Ahlrichs, J. Chem. Phys. 97, 2571 (1992).

Your calculation utilizes the basis: Ahlrichs SVPalls1+f
Cite in your paper:
Rb - Xe: A. Schaefer, C. Huber and R. Ahlrichs, J. Chem. Phys. 100, 5829 (1994).

Your calculation utilizes pol. fcns from basis: Ahlrichs polarization
Cite in your paper:
H - Kr: R. Ahlrichs and coworkers, unpublished

================================================================================
                                        WARNINGS
                       Please study these warnings very carefully!
================================================================================
WARNING: $new_job feature was found, but different jobs with identical BaseNames
         have been detected.
         Please check your results carefully!


WARNING: The RI method has been chosen with no auxiliary basis (AUX or GTOAUX in BASIS block)
Your calculation utilizes aux bases from the TurboMole library
Cite in your paper:
The Ahlrichs auxiliary basis sets were obtained from the TurboMole
basis set library under ftp.chemie.uni-karlsruhe.de/pub/jbasen
H - Ba; Hf - At:
      1) K. Eichkorn, O. Treutler, H. Ohm, M. Haser and R. Ahlrichs,
         Chem. Phys. Letters 240, 283 (1995).
      2) K. Eichkorn, F. Weigend, O. Treutler, R. Ahlrichs,
         Theor. Chem. Acc. 97, 119 (1997)
Rb-I : uncontracted bases constructed by FN 'by inspection' (01/2002)


        Standard SV/J expansion basis used (GTOAUX=VDZ_J)

Now building the actual basis set

WARNING: Direct SCF is incompatible with ReadInts=true
  ===> : ReadInts is disabled


INFO   : the flag for use of LIBINT has been found!

================================================================================
                                       INPUT FILE
================================================================================
NAME = orca.inp
|  1> # -----------------------------------------------------
|  2> ! UKS LSD SVP grid5 NoFinalGrid TightSCF KeepInts
|  3> # -----------------------------------------------------
|  4> %eprnmr gtensor 1 end
|  5> * int 0 2
|  6> B 0 0 0 0 0 0
|  7> O 1 0 0 1.2049 0 0
|  8> *
|  9> # *************************************************
| 10> # ****** This starts the input for the next job *
| 11> # *************************************************
| 12> $new_job
| 13> # --------------------------------------------------
| 14> ! BP86 SVP SmallPrint ReadInts NoKeepInts
| 15> # --------------------------------------------------
| 16> %eprnmr gtensor 1 end
| 17> * int 0 2
| 18> B 0 0 0 0 0 0
| 19> O 1 0 0 1.2049 0 0
| 20> *
| 21> 
| 22>                          ****END OF INPUT****
================================================================================


                 $$$$$$$$$$$$$$$$$$$$$$$$$$$$$$$$$$$$$$$$$$$$$$ 
                 $ THERE ARE  2 JOBS TO BE PROCESSED THIS RUN $
                 $$$$$$$$$$$$$$$$$$$$$$$$$$$$$$$$$$$$$$$$$$$$$$ 




                 $$$$$$$$$$$$$$$$  JOB NUMBER  1 $$$$$$$$$$$$$$


                       ****************************
                       * Single Point Calculation *
                       ****************************

---------------------------------
CARTESIAN COORDINATES (ANGSTROEM)
---------------------------------
  B      0.000000    0.000000    0.000000
  O      1.204900    0.000000    0.000000

----------------------------
CARTESIAN COORDINATES (A.U.)
----------------------------
  NO LB      ZA    FRAG    MASS        X           Y           Z
   0 B     5.0000    0    10.810          0.000000000000000          0.000000000000000          0.000000000000000
   1 O     8.0000    0    15.999          2.276931018761716          0.000000000000000          0.000000000000000

--------------------------------
INTERNAL COORDINATES (ANGSTROEM)
--------------------------------
 B      0   0   0   0.000000     0.000     0.000
 O      1   0   0   1.204900     0.000     0.000

---------------------------
INTERNAL COORDINATES (A.U.)
---------------------------
 B      0   0   0   0.000000     0.000     0.000
 O      1   0   0   2.276931     0.000     0.000

---------------------
BASIS SET INFORMATION
---------------------
There are 2 groups of distinct atoms

 Group   1 Type B   : 7s4p1d contracted to 3s2p1d pattern {511/31/1}
 Group   2 Type O   : 7s4p1d contracted to 3s2p1d pattern {511/31/1}

Atom   0B    basis set group =>   1
Atom   1O    basis set group =>   2
-------------------------------
AUXILIARY BASIS SET INFORMATION
-------------------------------
There are 2 groups of distinct atoms

 Group   1 Type B   : 8s3p3d1f contracted to 6s3p3d1f pattern {311111/111/111/1}
 Group   2 Type O   : 8s3p3d1f contracted to 6s3p3d1f pattern {311111/111/111/1}

Atom   0B    basis set group =>   1
Atom   1O    basis set group =>   2
------------------------------------------------------------------------------
                           ORCA GTO INTEGRAL CALCULATION
                           -- RI-GTO INTEGRALS CHOSEN --
------------------------------------------------------------------------------

                         BASIS SET STATISTICS AND STARTUP INFO

Gaussian basis set:
 # of primitive gaussian shells          ...   24
 # of primitive gaussian functions       ...   48
 # of contracted shells                  ...   12
 # of contracted basis functions         ...   28
 Highest angular momentum                ...    2
 Maximum contraction depth               ...    5
Auxiliary gaussian basis set:
 # of primitive gaussian shells          ...   30
 # of primitive gaussian functions       ...   78
 # of contracted shells                  ...   26
 # of contracted aux-basis functions     ...   74
 Highest angular momentum                ...    3
 Maximum contraction depth               ...    3
Ratio of auxiliary to basis functions    ...  2.64
Integral package used                  ... LIBINT
 One Electron integrals                  ... done
 Ordering auxiliary basis shells         ... done
 Integral threshhold             Thresh  ...  2.500e-11
 Primitive cut-off               TCut    ...  2.500e-12
 Pre-screening matrix                    ... done
 Shell pair data                         ... 
 Ordering of the shell pairs             ... done (   0.000 sec) 78 of 78 pairs
 Determination of significant pairs      ... done (   0.000 sec)
 Creation of shell pair data             ... done (   0.000 sec)
 Storage of shell pair data              ... done (   0.008 sec)
 Shell pair data done in (   0.008 sec)
 Computing two index integrals           ... done
 Cholesky decomposition of the V-matrix  ... done


Timings:
 Total evaluation time                   ...   1.433 sec (  0.024 min)
 One electron matrix time                ...   0.021 sec (  0.000 min) =  1.5%
 Schwartz matrix evaluation time         ...   1.295 sec (  0.022 min) = 90.3%
 Two index repulsion integral time       ...   0.002 sec (  0.000 min) =  0.1%
 Cholesky decomposition of V             ...   0.074 sec (  0.001 min) =  5.2%
 Three index repulsion integral time     ...   0.000 sec (  0.000 min) =  0.0%

-------------------------------------------------------------------------------
                                 ORCA SCF
-------------------------------------------------------------------------------

------------
SCF SETTINGS
------------
Hamiltonian:
 Density Functional     Method          .... DFT(GTOs)
 Exchange Functional    Exchange        .... Slater
   X-Alpha parameter    XAlpha          ....  0.666667
 Correlation Functional Correlation     .... VWN-5
 Gradients option       PostSCFGGA      .... off
 RI-approximation to the Coulomb term is turned on
   Number of auxiliary basis functions  .... 74


General Settings:
 Integral files         IntName         .... orca
 Hartree-Fock type      HFTyp           .... UHF
 Total Charge           Charge          ....    0
 Multiplicity           Mult            ....    2
 Number of Electrons    NEL             ....   13
 Basis Dimension        Dim             ....   28
 Nuclear Repulsion      ENuc            ....     17.5675062926 Eh

Convergence Acceleration:
 DIIS                   CNVDIIS         .... on
   Start iteration      DIISMaxIt       ....    12
   Startup error        DIISStart       ....  0.200000
   # of expansion vecs  DIISMaxEq       ....     5
   Bias factor          DIISBfac        ....   1.050
   Max. coefficient     DIISMaxC        ....  10.000
 Newton-Raphson         CNVNR           .... off
 SOSCF                  CNVSOSCF        .... off
 Level Shifting         CNVShift        .... on
   Level shift para.    LevelShift      ....    0.2500
   Turn off err/grad.   ShiftErr        ....    0.0010
 Zerner damping         CNVZerner       .... off
 Static damping         CNVDamp         .... on
   Fraction old density DampFac         ....    0.7000
   Max. Damping (<1)    DampMax         ....    0.9800
   Min. Damping (>=0)   DampMin         ....    0.0000
   Turn off err/grad.   DampErr         ....    0.1000
 Fernandez-Rico         CNVRico         .... off

SCF Procedure:
 Maximum # iterations   MaxIter         ....   125
 SCF integral mode      SCFMode         .... Direct
   Integral package                     .... LIBINT
 Reset frequeny         DirectResetFreq ....    20
 Integral Threshold     Thresh          ....  2.500e-11 Eh
 Primitive CutOff       TCut            ....  2.500e-12 Eh

Convergence Tolerance:
 Convergence Check Mode ConvCheckMode   .... Total+1el-Energy
 Energy Change          TolE            ....  1.000e-08 Eh
 1-El. energy change                    ....  1.000e-05 Eh
 DIIS Error             TolErr          ....  5.000e-07


Diagonalization of the overlap matrix:
Smallest eigenvalue                        ... 2.330e-02
Time for diagonalization                   ...    0.005 sec
Threshold for overlap eigenvalues          ... 1.000e-08
Number of eigenvalues below threshold      ... 0
Time for construction of square roots      ...    0.004 sec
Total time needed                          ...    0.009 sec

-------------------
DFT GRID GENERATION
-------------------

General Integration Accuracy     IntAcc      ...  5.010
Radial Grid Type                 RadialGrid  ... Gauss-Chebyshev
Angular Grid (max. acc.)         AngularGrid ... Lebedev-434
Angular grid pruning method      GridPruning ... 3 (G Style)
Weight generation scheme         WeightScheme... Becke
Basis function cutoff            BFCut       ...    1.0000e-11
Integration weight cutoff        WCut        ...    1.0000e-14
Grids for H and He will be reduced by one unit

# of grid points (after initial pruning)     ...  21432 (   0.0 sec)
# of grid points (after weights+screening)   ...  21329 (   0.0 sec)
nearest neighbour list constructed           ...    0.0 sec
Grid point re-assignment to atoms done       ...    0.0 sec
Grid point division into batches done        ...    0.2 sec
Reduced shell lists constructed in    0.3 sec

Total number of grid points                  ...    21329
Total number of batches                      ...      335
Average number of points per batch           ...       63
Average number of grid points per atom       ...    10664
Average number of shells per batch           ...     9.31 (77.58%)
Average number of basis functions per batch  ...    22.19 (79.25%)
Average number of large shells per batch     ...     8.59 (92.30%)
Average number of large basis fcns per batch ...    20.73 (93.41%)
Maximum spatial batch extension              ...  21.88, 23.53, 23.53 au
Average spatial batch extension              ...   3.51,  4.14,  4.08 au

Time for grid setup =    0.265 sec

------------------------------
INITIAL GUESS: MODEL POTENTIAL
------------------------------
Loading Hartree-Fock densities                     ... done
Calculating cut-offs                               ... done
Setting up the integral package                    ... done
Initializing the effective Hamiltonian             ... done
Starting the Coulomb interaction                   ... done (   0.9 sec)
Reading the grid                                   ... done
Mapping shells                                     ... done
Starting the XC term evaluation                    ... done (   0.0 sec)
  promolecular density results
     # of electrons  =     12.999998954
     EX              =    -10.688819754
     EC              =     -0.860151469
     EX+EC           =    -11.548971223
Transforming the Hamiltonian                       ... done (   0.0 sec)
Diagonalizing the Hamiltonian                      ... done (   0.0 sec)
Back transforming the eigenvectors                 ... done (   0.0 sec)
Now organizing SCF variables                       ... done
                      ------------------
                      INITIAL GUESS DONE (   1.3 sec)
                      ------------------
--------------
SCF ITERATIONS
--------------
ITER       Energy         Delta-E        Max-DP      RMS-DP      [F,P]     Damp
               ***  Starting incremental Fock matrix formation  ***
  0    -98.9898204393   0.000000000000 0.07169464  0.00628033  0.3368374 0.7000
  1    -99.0687782611  -0.078957821719 0.02844316  0.00227450  0.0447276 0.7000
                               ***Turning on DIIS***
  2    -99.0754474590  -0.006669197937 0.05218739  0.00392463  0.0836547 0.0000
  3    -99.1279302854  -0.052482826428 0.01934969  0.00173064  0.0530941 0.0000
  4    -99.1315176678  -0.003587382399 0.01080956  0.00061040  0.0260027 0.0000
  5    -99.1321989040  -0.000681236170 0.00335552  0.00023637  0.0095116 0.0000
  6    -99.1323165383  -0.000117634332 0.00132620  0.00012536  0.0031594 0.0000
  7    -99.1323431913  -0.000026652986 0.00094005  0.00007290  0.0011573 0.0000
  8    -99.1323515383  -0.000008347025 0.00126835  0.00010147  0.0006225 0.0000
  9    -99.1323562079  -0.000004669560 0.00018478  0.00001156  0.0002741 0.0000
 10    -99.1323563300  -0.000000122153 0.00004385  0.00000292  0.0000890 0.0000
 11    -99.1323563429  -0.000000012894 0.00001820  0.00000118  0.0000123 0.0000
 12    -99.1323563443  -0.000000001324 0.00001024  0.00000078  0.0000054 0.0000
                 **** Energy Check signals convergence ****

               *****************************************************
               *                     SUCCESS                       *
               *           SCF CONVERGED AFTER  13 CYCLES          *
               *****************************************************


----------------
TOTAL SCF ENERGY
----------------

Total Energy       :          -99.13235634 Eh           -2697.52856 eV

Components:
Nuclear Repulsion  :           17.56750629 Eh             478.03615 eV
Electronic Energy  :         -116.69986264 Eh           -3175.56470 eV

One Electron Energy:         -170.89942956 Eh           -4650.40990 eV
Two Electron Energy:           54.19956692 Eh            1474.84520 eV

Virial components:
Potential Energy   :         -198.11647616 Eh           -5391.02339 eV
Kinetic Energy     :           98.98411981 Eh            2693.49483 eV
Virial Ratio       :            2.00149758


DFT components:
N(Alpha)           :        6.999997704026 electrons
N(Beta)            :        5.999997779488 electrons
N(Total)           :       12.999995483514 electrons
E(X)               :      -10.884468978616 Eh       
E(C)               :       -0.859364488715 Eh       
E(XC)              :      -11.743833467331 Eh       

---------------
SCF CONVERGENCE
---------------

  Last Energy change         ...   -3.8715e-10  Tolerance :   1.0000e-08
  Last MAX-Density change    ...    3.4127e-06  Tolerance :   1.0000e-07
  Last RMS-Density change    ...    2.7762e-07  Tolerance :   5.0000e-09
  Last DIIS Error            ...    1.4392e-06  Tolerance :   5.0000e-07

             **** THE GBW FILE WAS UPDATED (orca.gbw) ****
             **** DENSITY FILE WAS UPDATED (orca.scfp.tmp) ****
             **** ENERGY FILE WAS UPDATED (orca.en.tmp) ****
----------------------
UHF SPIN CONTAMINATION
----------------------

Warning: in a DFT calculation there is little theoretical justification to 
         calculate <S**2> as in Hartree-Fock theory. We will do it anyways
         but you should keep in mind that the values have only limited relevance

Expectation value of <S**2>     :     0.758628
Ideal value S*(S+1) for S=0.5   :     0.750000
Deviation                       :     0.008628

----------------
ORBITAL ENERGIES
----------------
                 SPIN UP ORBITALS
  NO   OCC          E(Eh)            E(eV) 
   0   1.0000     -18.628248      -506.9004 
   1   1.0000      -6.515809      -177.3042 
   2   1.0000      -0.896815       -24.4036 
   3   1.0000      -0.387964       -10.5570 
   4   1.0000      -0.341517        -9.2931 
   5   1.0000      -0.341517        -9.2931 
   6   1.0000      -0.297676        -8.1002 
   7   0.0000      -0.049931        -1.3587 
   8   0.0000      -0.049931        -1.3587 
   9   0.0000       0.107907         2.9363 
  10   0.0000       0.176429         4.8009 
  11   0.0000       0.242898         6.6096 
  12   0.0000       0.242898         6.6096 
  13   0.0000       0.578483        15.7413 
  14   0.0000       0.808330        21.9958 
  15   0.0000       0.925402        25.1815 
  16   0.0000       0.925402        25.1815 
  17   0.0000       0.934761        25.4361 
  18   0.0000       0.934761        25.4361 
  19   0.0000       1.077401        29.3176 
  20   0.0000       1.077401        29.3176 
  21   0.0000       1.141789        31.0697 
  22   0.0000       1.684695        45.8429 
  23   0.0000       2.563243        69.7494 
  24   0.0000       2.563243        69.7494 
  25   0.0000       2.950938        80.2991 
  26   0.0000       2.950938        80.2991 
  27   0.0000       3.342090        90.9429 

                 SPIN DOWN ORBITALS
  NO   OCC          E(Eh)            E(eV) 
   0   1.0000     -18.629232      -506.9272 
   1   1.0000      -6.498836      -176.8423 
   2   1.0000      -0.895131       -24.3578 
   3   1.0000      -0.380512       -10.3542 
   4   1.0000      -0.336357        -9.1527 
   5   1.0000      -0.336357        -9.1527 
   6   0.0000      -0.210343        -5.7237 
   7   0.0000      -0.013511        -0.3677 
   8   0.0000      -0.013511        -0.3677 
   9   0.0000       0.124513         3.3882 
  10   0.0000       0.226782         6.1711 
  11   0.0000       0.270992         7.3741 
  12   0.0000       0.270992         7.3741 
  13   0.0000       0.627718        17.0811 
  14   0.0000       0.814957        22.1761 
  15   0.0000       0.924541        25.1580 
  16   0.0000       0.924541        25.1580 
  17   0.0000       0.983835        26.7715 
  18   0.0000       0.983835        26.7715 
  19   0.0000       1.140479        31.0340 
  20   0.0000       1.140479        31.0340 
  21   0.0000       1.145801        31.1788 
  22   0.0000       1.737874        47.2899 
  23   0.0000       2.558703        69.6259 
  24   0.0000       2.558704        69.6259 
  25   0.0000       2.959573        80.5341 
  26   0.0000       2.959573        80.5341 
  27   0.0000       3.350624        91.1751 

                    ********************************
                    * MULLIKEN POPULATION ANALYSIS *
                    ********************************

--------------------------------------------
MULLIKEN ATOMIC CHARGES AND SPIN POPULATIONS
--------------------------------------------
   0 B :   -0.011493    1.072857
   1 O :    0.011493   -0.072857
Sum of atomic charges         :   -0.0000000
Sum of atomic spin populations:    1.0000000

-----------------------------------------------------
MULLIKEN REDUCED ORBITAL CHARGES AND SPIN POPULATIONS
-----------------------------------------------------
CHARGE
  0 B s       :     3.141988  s :     3.141988
      pz      :     0.516671  p :     1.781586
      px      :     0.748244
      py      :     0.516671
      dz2     :     0.007556  d :     0.087919
      dxz     :     0.028848
      dyz     :     0.000000
      dx2y2   :     0.022667
      dxy     :     0.028848
  1 O s       :     3.686188  s :     3.686188
      pz      :     1.450587  p :     4.288917
      px      :     1.387742
      py      :     1.450587
      dz2     :     0.001404  d :     0.013402
      dxz     :     0.003894
      dyz     :     0.000000
      dx2y2   :     0.004211
      dxy     :     0.003894

SPIN
  0 B s       :     0.586314  s :     0.586314
      pz      :     0.059844  p :     0.496376
      px      :     0.376688
      py      :     0.059844
      dz2     :    -0.000021  d :    -0.009833
      dxz     :    -0.004873
      dyz     :     0.000000
      dx2y2   :    -0.000064
      dxy     :    -0.004873
  1 O s       :     0.004850  s :     0.004850
      pz      :    -0.055212  p :    -0.078489
      px      :     0.031935
      py      :    -0.055212
      dz2     :     0.000075  d :     0.000782
      dxz     :     0.000241
      dyz     :     0.000000
      dx2y2   :     0.000225
      dxy     :     0.000241


                     *******************************
                     * LOEWDIN POPULATION ANALYSIS *
                     *******************************

-------------------------------------------
LOEWDIN ATOMIC CHARGES AND SPIN POPULATIONS
-------------------------------------------
   0 B :   -0.043735    1.043654
   1 O :    0.043735   -0.043654

----------------------------------------------------
LOEWDIN REDUCED ORBITAL CHARGES AND SPIN POPULATIONS
----------------------------------------------------
CHARGE
  0 B s       :     2.975613  s :     2.975613
      pz      :     0.530558  p :     1.875349
      px      :     0.814234
      py      :     0.530558
      dz2     :     0.019763  d :     0.192773
      dxz     :     0.056860
      dyz     :     0.000000
      dx2y2   :     0.059290
      dxy     :     0.056860
  1 O s       :     3.500398  s :     3.500398
      pz      :     1.408665  p :     4.434880
      px      :     1.617549
      py      :     1.408665
      dz2     :     0.003288  d :     0.020987
      dxz     :     0.003917
      dyz     :     0.000000
      dx2y2   :     0.009865
      dxy     :     0.003917

SPIN
  0 B s       :     0.557627  s :     0.557627
      pz      :     0.055338  p :     0.498611
      px      :     0.387936
      py      :     0.055338
      dz2     :     0.000141  d :    -0.012584
      dxz     :    -0.006574
      dyz     :     0.000000
      dx2y2   :     0.000423
      dxy     :    -0.006574
  1 O s       :     0.009372  s :     0.009372
      pz      :    -0.049191  p :    -0.054476
      px      :     0.043906
      py      :    -0.049191
      dz2     :     0.000149  d :     0.001450
      dxz     :     0.000427
      dyz     :     0.000000
      dx2y2   :     0.000446
      dxy     :     0.000427


                      *****************************
                      * MAYER POPULATION ANALYSIS *
                      *****************************

  NA   - Mulliken gross atomic population
  ZA   - Total nuclear charge
  QA   - Mulliken gross atomic charge
  VA   - Mayer's total valence
  BVA  - Mayer's bonded valence
  FA   - Mayer's free valence

  ATOM       NA         ZA         QA         VA         BVA        FA
  0 B      5.0115     5.0000    -0.0115     3.5798     2.6620     0.9179
  1 O      7.9885     8.0000     0.0115     2.6706     2.6620     0.0087

  Mayer bond orders larger than 0.1
B(  0-B ,  1-O ) :   2.6620 

-------
TIMINGS
-------

Total SCF time: 0 days 0 hours 0 min 2 sec 

Total time                  ....       2.635 sec
Sum of individual times     ....       4.123 sec  (156.5%)

Fock matrix formation       ....       2.540 sec  ( 96.4%)
  Coulomb formation         ....       1.691 sec  ( 66.6% of F)
  Split-RI-J                ....       1.542 sec  ( 60.7% of F)
  XC integration            ....       0.771 sec  ( 30.4% of F)
    Basis function eval.    ....       0.136 sec  ( 17.6% of XC)
    Density eval.           ....       0.128 sec  ( 16.7% of XC)
    XC-Functional eval.     ....       0.239 sec  ( 31.1% of XC)
    XC-Potential eval.      ....       0.132 sec  ( 17.1% of XC)
Diagonalization             ....       0.015 sec  (  0.6%)
Density matrix formation    ....       0.000 sec  (  0.0%)
Population analysis         ....       0.009 sec  (  0.4%)
Initial guess               ....       1.289 sec  ( 48.9%)
Orbital Transformation      ....       0.000 sec  (  0.0%)
Orbital Orthonormalization  ....       0.000 sec  (  0.0%)
DIIS solution               ....       0.005 sec  (  0.2%)
Grid generation             ....       0.265 sec  ( 10.1%)

-------------------------   --------------------
FINAL SINGLE POINT ENERGY       -99.132356344647
-------------------------   --------------------

   --->>> g-tensor requested, so NeedSOC=true

                            ***************************************
                            *     ORCA property calculations      *
                            ***************************************

                                    ---------------------
                                    Active property flags
                                    ---------------------
   (+) Dipole Moment
   (+) g-tensor
   (+) Spin-Orbit Integrals are needed


------------------------------------------------------------------------------
                       ORCA ELECTRIC PROPERTIES CALCULATION
------------------------------------------------------------------------------

Dipole Moment Calculation                       ... on
Quadrupole Moment Calculation                   ... off
Polarizability Calculation                      ... off
GBWName                                         ... orca.gbw
Electron density file                           ... orca.scfp.tmp

-------------
DIPOLE MOMENT
-------------
                                X             Y             Z
Electronic contribution:     -1.28005       0.00000      -0.00000
Nuclear contribution   :      0.55078       0.00000       0.00000
                        -----------------------------------------
Total Dipole Moment    :     -0.72927       0.00000      -0.00000
                        -----------------------------------------
Magnitude (a.u.)       :      0.72927
Magnitude (Debye)      :      1.85366

------------------------------------------------------------------------------
                         ORCA SPIN-ORBIT COUPLING CALCULATION
------------------------------------------------------------------------------

GBW file                                    ... orca.gbw
Input density                               ... orca.scfp.tmp
Output integrals                            ... orca
Operator type                               ... Mean-field/Effective potential
   One-Electron Terms                       ... 1
   Coulomb Contribution                     ... 2
   Exchange Contribution                    ... 3
   Correlation Contribution                 ... 0
   Maximum number of centers                ... 4
Setting up the integration grid             ... done
Evaluating density on the grid              ... (NumEl=   12.999995) done
Evaluating Coulomb term semi-analytically   ... done
One-Center Exchange (+SOO)                  ... done
Evaluating the spin-orbit operator          ... done
Total time for SOC:  1.144
------------------------------------------------------------------------------
                                ORCA EPR/NMR CALCULATION
------------------------------------------------------------------------------

GBWName                      ... orca.gbw
Electron density file        ... orca.scfp.tmp
Spin density file            ... orca.scfr.tmp
Spin-orbit integrals         ... orca
Origin for angular momentum  ... Center of electronic charge
Coordinates of the origin    ...    1.45728614   -0.00000000    0.00000000 (bohrs)
Details of the CP(SCF) procedure:
       Solver   = POPLE   
       MaxIter  =    64   
       Tolerance=    1.000e-06
       Op-0     =   0-  6 =>   7- 27
       Op-1     =   0-  5 =>   6- 27
Multiplicity                 ... 2
g-tensor                     ... 1
Using LibInt in CPSCF-CP

Calculating angular momentum integrals      ... done
Forming RHS of the CP-SCF equations         ... done


Forming final perturbed densities           ... done

Magnetic field perturbation calculated in  0.285 sec
 Tensor is right-handed.


-------------------
ELECTRONIC G-MATRIX
-------------------

 The g-matrix: 
              2.0022532    0.0000000   -0.0000000
             -0.0000000    2.0006770    0.0000000
             -0.0000000    0.0000000    2.0006770

 gel          2.0023193    2.0023193    2.0023193
 gRMC        -0.0000960   -0.0000960   -0.0000960
 gDSO(tot)    0.0000769    0.0000769    0.0000300
 gPSO(tot)   -0.0016232   -0.0016232   -0.0000000
             ----------   ----------   ----------
 g(tot)       2.0006770    2.0006770    2.0022532 iso=  2.0012024
 Delta-g     -0.0016423   -0.0016423   -0.0000661 iso= -0.0011169
 Orientation: 
  X          -0.0000000    0.0000000    1.0000000
  Y           0.9975145    0.0704615    0.0000000
  Z          -0.0704615    0.9975145   -0.0000000

Notes:  (1) The principal values are square roots of the eigenvalues of gT*g
        (2) Orientations are eigenvectors of gT*g
        (3) Individual contributions are projections of the full matrices onto the eigenvectors of gT*g


INTEGRALS WILL BE KEPT IN FILES orca.x.tmp

Timings for individual modules:

Sum of individual times         ...        8.790 sec (=   0.147 min)
GTO integral calculation        ...        2.174 sec (=   0.036 min)  24.7 %
Spin-Orbit-Coupling Matrices    ...        1.142 sec (=   0.019 min)  13.0 %
SCF iterations                  ...        4.283 sec (=   0.071 min)  48.7 %
SCF-level EPR/NMR calculation   ...        1.191 sec (=   0.020 min)  13.5 %


                 $$$$$$$$$$$$$$$$  JOB NUMBER  2 $$$$$$$$$$$$$$


                       ****************************
                       * Single Point Calculation *
                       ****************************

---------------------------------
CARTESIAN COORDINATES (ANGSTROEM)
---------------------------------
  B      0.000000    0.000000    0.000000
  O      1.204900    0.000000    0.000000

----------------------------
CARTESIAN COORDINATES (A.U.)
----------------------------
  NO LB      ZA    FRAG    MASS        X           Y           Z
   0 B     5.0000    0    10.810          0.000000000000000          0.000000000000000          0.000000000000000
   1 O     8.0000    0    15.999          2.276931018761716          0.000000000000000          0.000000000000000

--------------------------------
INTERNAL COORDINATES (ANGSTROEM)
--------------------------------
 B      0   0   0   0.000000     0.000     0.000
 O      1   0   0   1.204900     0.000     0.000

---------------------------
INTERNAL COORDINATES (A.U.)
---------------------------
 B      0   0   0   0.000000     0.000     0.000
 O      1   0   0   2.276931     0.000     0.000

---------------------
BASIS SET INFORMATION
---------------------
There are 2 groups of distinct atoms

 Group   1 Type B   : 7s4p1d contracted to 3s2p1d pattern {511/31/1}
 Group   2 Type O   : 7s4p1d contracted to 3s2p1d pattern {511/31/1}

Atom   0B    basis set group =>   1
Atom   1O    basis set group =>   2
-------------------------------
AUXILIARY BASIS SET INFORMATION
-------------------------------
There are 2 groups of distinct atoms

 Group   1 Type B   : 8s3p3d1f contracted to 6s3p3d1f pattern {311111/111/111/1}
 Group   2 Type O   : 8s3p3d1f contracted to 6s3p3d1f pattern {311111/111/111/1}

Atom   0B    basis set group =>   1
Atom   1O    basis set group =>   2

Checking for AutoStart:
The File: orca.gbw exists
Trying to determine its content:
     ... Fine, the file contains calculation information
     ... Fine, the calculation information was read
     ... Fine, the file contains a basis set
     ... Fine, the basis set was read
     ... Fine, the file contains a geometry
     ... Fine, the geometry was read
     ... Fine, the file contains a set of orbitals
     ... Fine, the orbitals can be read
     => possible old guess file was deleted
     => GBW file was renamed to GES file
     => GES file is set as startup file
     => Guess is set to MORead
     ... now leaving AutoStart

------------------------------------------------------------------------------
                           ORCA GTO INTEGRAL CALCULATION
                           -- RI-GTO INTEGRALS CHOSEN --
------------------------------------------------------------------------------

                         BASIS SET STATISTICS AND STARTUP INFO

Gaussian basis set:
 # of primitive gaussian shells          ...   24
 # of primitive gaussian functions       ...   48
 # of contracted shells                  ...   12
 # of contracted basis functions         ...   28
 Highest angular momentum                ...    2
 Maximum contraction depth               ...    5
Auxiliary gaussian basis set:
 # of primitive gaussian shells          ...   30
 # of primitive gaussian functions       ...   78
 # of contracted shells                  ...   26
 # of contracted aux-basis functions     ...   74
 Highest angular momentum                ...    3
 Maximum contraction depth               ...    3
Ratio of auxiliary to basis functions    ...  2.64
Integral package used                  ... LIBINT
 One Electron integrals                  ... done
 Ordering auxiliary basis shells         ... done
 Integral threshhold             Thresh  ...  2.500e-11
 Primitive cut-off               TCut    ...  2.500e-12
 Pre-screening matrix                    ... done
 Shell pair data                         ... 
 Ordering of the shell pairs             ... done (   0.000 sec) 78 of 78 pairs
 Determination of significant pairs      ... done (   0.000 sec)
 Creation of shell pair data             ... done (   0.000 sec)
 Storage of shell pair data              ... done (   0.003 sec)
 Shell pair data done in (   0.003 sec)
 Computing two index integrals           ... done
 Cholesky decomposition of the V-matrix  ... done


Timings:
 Total evaluation time                   ...   0.132 sec (  0.002 min)
 One electron matrix time                ...   0.011 sec (  0.000 min) =  8.4%
 Schwartz matrix evaluation time         ...   0.081 sec (  0.001 min) = 61.1%
 Two index repulsion integral time       ...   0.004 sec (  0.000 min) =  3.0%
 Cholesky decomposition of V             ...   0.007 sec (  0.000 min) =  5.0%
 Three index repulsion integral time     ...   0.000 sec (  0.000 min) =  0.0%

-------------------------------------------------------------------------------
                                 ORCA SCF
-------------------------------------------------------------------------------

------------
SCF SETTINGS
------------
Hamiltonian:
 Density Functional     Method          .... DFT(GTOs)
 Exchange Functional    Exchange        .... B88
   X-Alpha parameter    XAlpha          ....  0.666667
   Becke's b parameter  XBeta           ....  0.004200
 Correlation Functional Correlation     .... P86
 LDA part of GGA corr.  LDAOpt          .... PW91-LDA
 Gradients option       PostSCFGGA      .... off
 RI-approximation to the Coulomb term is turned on
   Number of auxiliary basis functions  .... 74


General Settings:
 Integral files         IntName         .... orca
 Hartree-Fock type      HFTyp           .... UHF
 Total Charge           Charge          ....    0
 Multiplicity           Mult            ....    2
 Number of Electrons    NEL             ....   13
 Basis Dimension        Dim             ....   28
 Nuclear Repulsion      ENuc            ....     17.5675062926 Eh

Convergence Acceleration:
 DIIS                   CNVDIIS         .... on
   Start iteration      DIISMaxIt       ....    12
   Startup error        DIISStart       ....  0.200000
   # of expansion vecs  DIISMaxEq       ....     5
   Bias factor          DIISBfac        ....   1.050
   Max. coefficient     DIISMaxC        ....  10.000
 Newton-Raphson         CNVNR           .... off
 SOSCF                  CNVSOSCF        .... off
 Level Shifting         CNVShift        .... on
   Level shift para.    LevelShift      ....    0.2500
   Turn off err/grad.   ShiftErr        ....    0.0010
 Zerner damping         CNVZerner       .... off
 Static damping         CNVDamp         .... on
   Fraction old density DampFac         ....    0.7000
   Max. Damping (<1)    DampMax         ....    0.9800
   Min. Damping (>=0)   DampMin         ....    0.0000
   Turn off err/grad.   DampErr         ....    0.1000
 Fernandez-Rico         CNVRico         .... off

SCF Procedure:
 Maximum # iterations   MaxIter         ....   125
 SCF integral mode      SCFMode         .... Direct
   Integral package                     .... LIBINT
 Reset frequeny         DirectResetFreq ....    20
 Integral Threshold     Thresh          ....  2.500e-11 Eh
 Primitive CutOff       TCut            ....  2.500e-12 Eh

Convergence Tolerance:
 Convergence Check Mode ConvCheckMode   .... Total+1el-Energy
 Energy Change          TolE            ....  1.000e-08 Eh
 1-El. energy change                    ....  1.000e-05 Eh
 DIIS Error             TolErr          ....  5.000e-07


Diagonalization of the overlap matrix:
Smallest eigenvalue                        ... 2.330e-02
Time for diagonalization                   ...    0.002 sec
Threshold for overlap eigenvalues          ... 1.000e-08
Number of eigenvalues below threshold      ... 0
Time for construction of square roots      ...    0.012 sec
Total time needed                          ...    0.015 sec

---------------------
INITIAL GUESS: MOREAD
---------------------
Guess MOs are being read from file: orca.ges
Input Geometry matches current geometry (good)
Input basis set matches current basis set (good)
MOs were renormalized
MOs were reorthogonalized (Cholesky)
                      ------------------
                      INITIAL GUESS DONE (   0.0 sec)
                      ------------------
-------------------
DFT GRID GENERATION
-------------------

General Integration Accuracy     IntAcc      ...  5.010
Radial Grid Type                 RadialGrid  ... Gauss-Chebyshev
Angular Grid (max. acc.)         AngularGrid ... Lebedev-434
Angular grid pruning method      GridPruning ... 3 (G Style)
Weight generation scheme         WeightScheme... Becke
Basis function cutoff            BFCut       ...    1.0000e-11
Integration weight cutoff        WCut        ...    1.0000e-14
Grids for H and He will be reduced by one unit

# of grid points (after initial pruning)     ...  21432 (   0.0 sec)
# of grid points (after weights+screening)   ...  21329 (   0.0 sec)
nearest neighbour list constructed           ...    0.0 sec
Grid point re-assignment to atoms done       ...    0.0 sec
Grid point division into batches done        ...    0.2 sec
Reduced shell lists constructed in    0.3 sec

Total number of grid points                  ...    21329
Total number of batches                      ...      335
Average number of points per batch           ...       63
Average number of grid points per atom       ...    10664
Average number of shells per batch           ...     9.31 (77.58%)
Average number of basis functions per batch  ...    22.19 (79.25%)
Average number of large shells per batch     ...     8.59 (92.30%)
Average number of large basis fcns per batch ...    20.73 (93.41%)
Maximum spatial batch extension              ...  21.88, 23.53, 23.53 au
Average spatial batch extension              ...   3.51,  4.14,  4.08 au

Time for grid setup =    0.263 sec

--------------
SCF ITERATIONS
--------------
ITER       Energy         Delta-E        Max-DP      RMS-DP      [F,P]     Damp
               ***  Starting incremental Fock matrix formation  ***
  0    -99.9483807387   0.000000000000 0.00551373  0.00037195  0.0321722 0.7000
  1    -99.9486919661  -0.000311227306 0.00568988  0.00030635  0.0222540 0.7000
                               ***Turning on DIIS***
  2    -99.9489034476  -0.000211481583 0.01504063  0.00075501  0.0153654 0.0000
  3    -99.9493947217  -0.000491274036 0.00130558  0.00008755  0.0006695 0.0000
  4    -99.9493959426  -0.000001220923 0.00049718  0.00003985  0.0009394 0.0000
  5    -99.9493962441  -0.000000301543 0.00022529  0.00001670  0.0008326 0.0000
  6    -99.9493969252  -0.000000681040 0.00007971  0.00000421  0.0000536 0.0000
  7    -99.9493969339  -0.000000008757 0.00001142  0.00000077  0.0000128 0.0000
  8    -99.9493969344  -0.000000000464 0.00000365  0.00000028  0.0000021 0.0000
                 **** Energy Check signals convergence ****

               *****************************************************
               *                     SUCCESS                       *
               *           SCF CONVERGED AFTER   9 CYCLES          *
               *****************************************************


----------------
TOTAL SCF ENERGY
----------------

Total Energy       :          -99.94939693 Eh           -2719.76136 eV

Components:
Nuclear Repulsion  :           17.56750629 Eh             478.03615 eV
Electronic Energy  :         -117.51690323 Eh           -3197.79751 eV

One Electron Energy:         -170.97263305 Eh           -4652.40187 eV
Two Electron Energy:           53.45572982 Eh            1454.60436 eV

Virial components:
Potential Energy   :         -199.20576379 Eh           -5420.66441 eV
Kinetic Energy     :           99.25636685 Eh            2700.90305 eV
Virial Ratio       :            2.00698222


DFT components:
N(Alpha)           :        6.999997700499 electrons
N(Beta)            :        5.999997787034 electrons
N(Total)           :       12.999995487532 electrons
E(X)               :      -12.140584671189 Eh       
E(C)               :       -0.440683661272 Eh       
E(XC)              :      -12.581268332460 Eh       

---------------
SCF CONVERGENCE
---------------

  Last Energy change         ...   -5.0582e-10  Tolerance :   1.0000e-08
  Last MAX-Density change    ...    1.7883e-06  Tolerance :   1.0000e-07
  Last RMS-Density change    ...    1.5042e-07  Tolerance :   5.0000e-09
  Last DIIS Error            ...    2.6349e-07  Tolerance :   5.0000e-07

             **** THE GBW FILE WAS UPDATED (orca.gbw) ****
             **** DENSITY FILE WAS UPDATED (orca.scfp.tmp) ****
             **** ENERGY FILE WAS UPDATED (orca.en.tmp) ****
----------------------
UHF SPIN CONTAMINATION
----------------------

Warning: in a DFT calculation there is little theoretical justification to 
         calculate <S**2> as in Hartree-Fock theory. We will do it anyways
         but you should keep in mind that the values have only limited relevance

Expectation value of <S**2>     :     0.759642
Ideal value S*(S+1) for S=0.5   :     0.750000
Deviation                       :     0.009642

----------------
ORBITAL ENERGIES
----------------
                 SPIN UP ORBITALS
  NO   OCC          E(Eh)            E(eV) 
   0   1.0000     -18.799664      -511.5649 
   1   1.0000      -6.610596      -179.8835 
   2   1.0000      -0.905576       -24.6420 
   3   1.0000      -0.390794       -10.6341 
   4   1.0000      -0.336337        -9.1522 
   5   1.0000      -0.336337        -9.1522 
   6   1.0000      -0.303540        -8.2597 
   7   0.0000      -0.046549        -1.2667 
   8   0.0000      -0.046549        -1.2667 
   9   0.0000       0.114290         3.1100 
  10   0.0000       0.176658         4.8071 
  11   0.0000       0.254103         6.9145 
  12   0.0000       0.254103         6.9145 
  13   0.0000       0.582619        15.8539 
  14   0.0000       0.814975        22.1766 
  15   0.0000       0.933694        25.4071 
  16   0.0000       0.933694        25.4071 
  17   0.0000       0.937485        25.5103 
  18   0.0000       0.937485        25.5103 
  19   0.0000       1.074194        29.2303 
  20   0.0000       1.074194        29.2303 
  21   0.0000       1.142404        31.0864 
  22   0.0000       1.686341        45.8877 
  23   0.0000       2.559671        69.6522 
  24   0.0000       2.559671        69.6522 
  25   0.0000       2.945347        80.1470 
  26   0.0000       2.945347        80.1470 
  27   0.0000       3.339556        90.8739 

                 SPIN DOWN ORBITALS
  NO   OCC          E(Eh)            E(eV) 
   0   1.0000     -18.800402      -511.5849 
   1   1.0000      -6.595309      -179.4675 
   2   1.0000      -0.904637       -24.6164 
   3   1.0000      -0.380830       -10.3629 
   4   1.0000      -0.333250        -9.0682 
   5   1.0000      -0.333250        -9.0682 
   6   0.0000      -0.195486        -5.3195 
   7   0.0000      -0.006610        -0.1799 
   8   0.0000      -0.006610        -0.1799 
   9   0.0000       0.134333         3.6554 
  10   0.0000       0.238565         6.4917 
  11   0.0000       0.283222         7.7069 
  12   0.0000       0.283222         7.7069 
  13   0.0000       0.643978        17.5235 
  14   0.0000       0.823395        22.4057 
  15   0.0000       0.935350        25.4522 
  16   0.0000       0.935350        25.4522 
  17   0.0000       0.983851        26.7720 
  18   0.0000       0.983851        26.7720 
  19   0.0000       1.146635        31.2015 
  20   0.0000       1.150511        31.3070 
  21   0.0000       1.150511        31.3070 
  22   0.0000       1.756564        47.7985 
  23   0.0000       2.553186        69.4757 
  24   0.0000       2.553186        69.4757 
  25   0.0000       2.955709        80.4289 
  26   0.0000       2.955709        80.4289 
  27   0.0000       3.350387        91.1687 

                    ********************************
                    * MULLIKEN POPULATION ANALYSIS *
                    ********************************

--------------------------------------------
MULLIKEN ATOMIC CHARGES AND SPIN POPULATIONS
--------------------------------------------
   0 B :    0.005951    1.070510
   1 O :   -0.005951   -0.070510
Sum of atomic charges         :   -0.0000000
Sum of atomic spin populations:    1.0000000

-----------------------------------------------------
MULLIKEN REDUCED ORBITAL CHARGES AND SPIN POPULATIONS
-----------------------------------------------------
CHARGE
  0 B s       :     3.145389  s :     3.145389
      pz      :     0.511531  p :     1.760899
      px      :     0.737838
      py      :     0.511531
      dz2     :     0.007423  d :     0.087760
      dxz     :     0.029035
      dyz     :     0.000000
      dx2y2   :     0.022268
      dxy     :     0.029035
  1 O s       :     3.695917  s :     3.695917
      pz      :     1.455540  p :     4.296491
      px      :     1.385411
      py      :     1.455540
      dz2     :     0.001438  d :     0.013543
      dxz     :     0.003895
      dyz     :     0.000000
      dx2y2   :     0.004315
      dxy     :     0.003895

SPIN
  0 B s       :     0.581995  s :     0.581995
      pz      :     0.062228  p :     0.501653
      px      :     0.377198
      py      :     0.062228
      dz2     :    -0.000047  d :    -0.013138
      dxz     :    -0.006474
      dyz     :     0.000000
      dx2y2   :    -0.000142
      dxy     :    -0.006474
  1 O s       :     0.004148  s :     0.004148
      pz      :    -0.056023  p :    -0.075532
      px      :     0.036515
      py      :    -0.056023
      dz2     :     0.000084  d :     0.000874
      dxz     :     0.000270
      dyz     :    -0.000000
      dx2y2   :     0.000251
      dxy     :     0.000270


                     *******************************
                     * LOEWDIN POPULATION ANALYSIS *
                     *******************************

-------------------------------------------
LOEWDIN ATOMIC CHARGES AND SPIN POPULATIONS
-------------------------------------------
   0 B :   -0.030861    1.042049
   1 O :    0.030861   -0.042049

----------------------------------------------------
LOEWDIN REDUCED ORBITAL CHARGES AND SPIN POPULATIONS
----------------------------------------------------
CHARGE
  0 B s       :     2.976090  s :     2.976090
      pz      :     0.526195  p :     1.860231
      px      :     0.807840
      py      :     0.526195
      dz2     :     0.019953  d :     0.194541
      dxz     :     0.057364
      dyz     :     0.000000
      dx2y2   :     0.059860
      dxy     :     0.057364
  1 O s       :     3.508649  s :     3.508649
      pz      :     1.412567  p :     4.439691
      px      :     1.614557
      py      :     1.412567
      dz2     :     0.003263  d :     0.020798
      dxz     :     0.003874
      dyz     :     0.000000
      dx2y2   :     0.009788
      dxy     :     0.003874

SPIN
  0 B s       :     0.550614  s :     0.550614
      pz      :     0.057778  p :     0.506863
      px      :     0.391308
      py      :     0.057778
      dz2     :     0.000119  d :    -0.015427
      dxz     :    -0.007952
      dyz     :     0.000000
      dx2y2   :     0.000358
      dxy     :    -0.007952
  1 O s       :     0.009129  s :     0.009129
      pz      :    -0.050236  p :    -0.052523
      px      :     0.047950
      py      :    -0.050236
      dz2     :     0.000131  d :     0.001344
      dxz     :     0.000411
      dyz     :     0.000000
      dx2y2   :     0.000392
      dxy     :     0.000411


                      *****************************
                      * MAYER POPULATION ANALYSIS *
                      *****************************

  NA   - Mulliken gross atomic population
  ZA   - Total nuclear charge
  QA   - Mulliken gross atomic charge
  VA   - Mayer's total valence
  BVA  - Mayer's bonded valence
  FA   - Mayer's free valence

  ATOM       NA         ZA         QA         VA         BVA        FA
  0 B      4.9940     5.0000     0.0060     3.5587     2.6417     0.9170
  1 O      8.0060     8.0000    -0.0060     2.6512     2.6417     0.0094

  Mayer bond orders larger than 0.1
B(  0-B ,  1-O ) :   2.6417 

-------
TIMINGS
-------

Total SCF time: 0 days 0 hours 0 min 2 sec 

Total time                  ....       2.550 sec
Sum of individual times     ....       2.509 sec  ( 98.4%)

Fock matrix formation       ....       2.226 sec  ( 87.3%)
  Coulomb formation         ....       1.243 sec  ( 55.8% of F)
  Split-RI-J                ....       1.102 sec  ( 49.5% of F)
  XC integration            ....       0.943 sec  ( 42.4% of F)
    Basis function eval.    ....       0.179 sec  ( 19.0% of XC)
    Density eval.           ....       0.186 sec  ( 19.7% of XC)
    XC-Functional eval.     ....       0.226 sec  ( 24.0% of XC)
    XC-Potential eval.      ....       0.206 sec  ( 21.9% of XC)
Diagonalization             ....       0.010 sec  (  0.4%)
Density matrix formation    ....       0.000 sec  (  0.0%)
Population analysis         ....       0.006 sec  (  0.2%)
Initial guess               ....       0.001 sec  (  0.0%)
Orbital Transformation      ....       0.000 sec  (  0.0%)
Orbital Orthonormalization  ....       0.000 sec  (  0.0%)
DIIS solution               ....       0.003 sec  (  0.1%)
Grid generation             ....       0.263 sec  ( 10.3%)

-------------------------   --------------------
FINAL SINGLE POINT ENERGY       -99.949396934904
-------------------------   --------------------

   --->>> g-tensor requested, so NeedSOC=true

                            ***************************************
                            *     ORCA property calculations      *
                            ***************************************

                                    ---------------------
                                    Active property flags
                                    ---------------------
   (+) Dipole Moment
   (+) g-tensor
   (+) Spin-Orbit Integrals are needed


------------------------------------------------------------------------------
                       ORCA ELECTRIC PROPERTIES CALCULATION
------------------------------------------------------------------------------

Dipole Moment Calculation                       ... on
Quadrupole Moment Calculation                   ... off
Polarizability Calculation                      ... off
GBWName                                         ... orca.gbw
Electron density file                           ... orca.scfp.tmp

-------------
DIPOLE MOMENT
-------------
                                X             Y             Z
Electronic contribution:     -1.28929      -0.00000       0.00000
Nuclear contribution   :      0.55078       0.00000       0.00000
                        -----------------------------------------
Total Dipole Moment    :     -0.73851      -0.00000       0.00000
                        -----------------------------------------
Magnitude (a.u.)       :      0.73851
Magnitude (Debye)      :      1.87715

------------------------------------------------------------------------------
                         ORCA SPIN-ORBIT COUPLING CALCULATION
------------------------------------------------------------------------------

GBW file                                    ... orca.gbw
Input density                               ... orca.scfp.tmp
Output integrals                            ... orca
Operator type                               ... Mean-field/Effective potential
   One-Electron Terms                       ... 1
   Coulomb Contribution                     ... 2
   Exchange Contribution                    ... 3
   Correlation Contribution                 ... 0
   Maximum number of centers                ... 4
Setting up the integration grid             ... done
Evaluating density on the grid              ... (NumEl=   12.999995) done
Evaluating Coulomb term semi-analytically   ... done
One-Center Exchange (+SOO)                  ... done
Evaluating the spin-orbit operator          ... done
Total time for SOC:  0.895
------------------------------------------------------------------------------
                                ORCA EPR/NMR CALCULATION
------------------------------------------------------------------------------

GBWName                      ... orca.gbw
Electron density file        ... orca.scfp.tmp
Spin density file            ... orca.scfr.tmp
Spin-orbit integrals         ... orca
Origin for angular momentum  ... Center of electronic charge
Coordinates of the origin    ...    1.45799703    0.00000000   -0.00000000 (bohrs)
Details of the CP(SCF) procedure:
       Solver   = POPLE   
       MaxIter  =    64   
       Tolerance=    1.000e-06
       Op-0     =   0-  6 =>   7- 27
       Op-1     =   0-  5 =>   6- 27
Multiplicity                 ... 2
g-tensor                     ... 1
Using LibInt in CPSCF-CP

Calculating angular momentum integrals      ... done
Forming RHS of the CP-SCF equations         ... done


Forming final perturbed densities           ... done

Magnetic field perturbation calculated in  0.121 sec
 Tensor is right-handed.


-------------------
ELECTRONIC G-MATRIX
-------------------

 The g-matrix: 
              2.0022514    0.0000000    0.0000000
             -0.0000000    2.0007136    0.0000000
              0.0000000    0.0000000    2.0007136

 gel          2.0023193    2.0023193    2.0023193
 gRMC        -0.0000975   -0.0000975   -0.0000975
 gDSO(tot)    0.0000784    0.0000784    0.0000296
 gPSO(tot)   -0.0015866   -0.0015866    0.0000000
             ----------   ----------   ----------
 g(tot)       2.0007136    2.0007136    2.0022514 iso=  2.0012262
 Delta-g     -0.0016056   -0.0016056   -0.0000679 iso= -0.0010931
 Orientation: 
  X          -0.0000000   -0.0000000   -1.0000000
  Y          -0.9502258    0.3115622    0.0000000
  Z           0.3115622    0.9502258   -0.0000000

Notes:  (1) The principal values are square roots of the eigenvalues of gT*g
        (2) Orientations are eigenvectors of gT*g
        (3) Individual contributions are projections of the full matrices onto the eigenvectors of gT*g


Timings for individual modules:

Sum of individual times         ...        3.901 sec (=   0.065 min)
GTO integral calculation        ...        0.165 sec (=   0.003 min)   4.2 %
Spin-Orbit-Coupling Matrices    ...        0.894 sec (=   0.015 min)  22.9 %
SCF iterations                  ...        2.588 sec (=   0.043 min)  66.3 %
SCF-level EPR/NMR calculation   ...        0.254 sec (=   0.004 min)   6.5 %



                             ****ORCA TERMINATED NORMALLY****
TOTAL RUN TIME: 0 days 0 hours 0 minutes 13 seconds 569 msec


------------------------------------------------------
Statistics for LoadLeveler job ll1-ib0.2723165.0:

number of nodes: 1
number of MPI tasks: 8
number of OpenMP threads per task: 1

memory consumption (high water mark): 0.16 GB

average CPU usage: 5.8 %

