
                                 *****************
                                 * O   R   C   A *
                                 *****************

           --- An Ab Initio, DFT and Semiempirical electronic structure package ---

                  #######################################################
                  #                        -***-                        #
                  #  Department of molecular theory and spectroscopy    #
                  #              Directorship: Frank Neese              #
                  # Max Planck Institute for Chemical Energy Conversion #
                  #                  D-45470 Muelheim/Ruhr              #
                  #                       Germany                       #
                  #                                                     #
                  #                  All rights reserved                #
                  #                        -***-                        #
                  #######################################################


                         Program Version 3.0.3 - RELEASE   -


 With contributions from (in alphabetic order):
   Ute Becker             : Parallelization
   Dmytro Bykov           : SCF Hessian
   Dmitry Ganyushin       : Spin-Orbit,Spin-Spin,Magnetic field MRCI
   Andreas Hansen         : Spin unrestricted coupled pair/coupled cluster methods
   Dimitrios Liakos       : Extrapolation schemes; parallel MDCI
   Robert Izsak           : Overlap fitted RIJCOSX, COSX-SCS-MP3
   Christian Kollmar      : KDIIS, OOCD, Brueckner-CCSD(T), CCSD density
   Simone Kossmann        : Meta GGA functionals, TD-DFT gradient, OOMP2, MP2 Hessian
   Taras Petrenko         : DFT Hessian,TD-DFT gradient, ASA and ECA modules, normal mode analysis, Resonance Raman, ABS, FL, XAS/XES, NRVS
   Christoph Reimann      : Effective Core Potentials
   Michael Roemelt        : Restricted open shell CIS
   Christoph Riplinger    : Improved optimizer, TS searches, QM/MM, DLPNO-CCSD
   Barbara Sandhoefer     : DKH picture change effects
   Igor Schapiro          : Molecular dynamics
   Kantharuban Sivalingam : CASSCF convergence, NEVPT2
   Boris Wezisla          : Elementary symmetry handling
   Frank Wennmohs         : Technical directorship


 We gratefully acknowledge several colleagues who have allowed us to
 interface, adapt or use parts of their codes:
   Stefan Grimme, W. Hujo, H. Kruse, T. Risthaus : VdW corrections, initial TS optimization,
                                                   DFT functionals, gCP
   Ed Valeev                                     : LibInt (2-el integral package), F12 methods
   Garnet Chan, S. Sharma, R. Olivares           : DMRG
   Ulf Ekstrom                                   : XCFun DFT Library
   Mihaly Kallay                                 : mrcc  (arbitrary order and MRCC methods)
   Andreas Klamt, Michael Diedenhofen            : otool_cosmo (COSMO solvation model)
   Frank Weinhold                                : gennbo (NPA and NBO analysis)
   Christopher J. Cramer and Donald G. Truhlar   : smd solvation model


 Your calculation uses the libint2 library for the computation of 2-el integrals
 For citations please refer to: http://libint.valeyev.net

 This ORCA versions uses:
   CBLAS   interface :  Fast vector & matrix operations
   LAPACKE interface :  Fast linear algebra routines


Your calculation utilizes the basis: Ahlrichs-TZV
Cite in your paper:
H - Kr: A. Schaefer, H. Horn and R. Ahlrichs, J. Chem. Phys. 97, 2571 (1992).

The def2-TZV basis will be loaded
Cite in your paper:
 	F. Weigend, R. Ahlrichs, Phys. Chem. Chem. Phys. 2005, 7, 3297.

Your calculation utilizes the atom-pairwise dispersion correction
with the Becke-Johnson damping scheme (D3BJ)
Cite in your paper:
S.Grimme, S.Ehrlich, L.Goerigk, J Comput Chem, (2011), 32, 1456–1465 
S.Grimme, J.Antony, S.Ehrlich and H.Krieg, J.Chem.Phys., 132, (2010), 154104 
   

================================================================================
                                        WARNINGS
                       Please study these warnings very carefully!
================================================================================
Now building the actual basis set

WARNING: Geometry Optimization
  ===> : Switching off AutoStart
         For restart on a previous wavefunction, please use MOREAD


INFO   : the flag for use of LIBINT has been found!

================================================================================
                                       INPUT FILE
================================================================================
NAME = orca.inp
|  1> ! B3LYP/G def2-TZVP TIGHTSCF Opt D3BJ 
|  2> #
|  3> %maxcore 1024
|  4> #
|  5> *xyz 0 1
|  6> C      0.000000    0.000000    0.000000
|  7> O      1.250000    0.000000    0.000000
|  8> H     -0.587148    0.939049    0.000000
|  9> H     -0.587148   -0.939049   -0.000000
| 10> *
| 11> 
| 12>                          ****END OF INPUT****
================================================================================

                       *****************************
                       * Geometry Optimization Run *
                       *****************************

Geometry optimization settings:
Update method            Update   .... BFGS
Choice of coordinates    CoordSys .... Redundant Internals
Initial Hessian          InHess   .... Almoef's Model

Convergence Tolerances:
Energy Change            TolE     ....  5.0000e-06 Eh
Max. Gradient            TolMAXG  ....  3.0000e-04 Eh/bohr
RMS Gradient             TolRMSG  ....  1.0000e-04 Eh/bohr
Max. Displacement        TolMAXD  ....  4.0000e-03 bohr
RMS Displacement         TolRMSD  ....  2.0000e-03 bohr

------------------------------------------------------------------------------
                        ORCA OPTIMIZATION COORDINATE SETUP
------------------------------------------------------------------------------

The optimization will be done in new redundant internal coordinates
Making redundant internal coordinates   ...  (new redundants) done
Evaluating the initial hessian          ...  (Almloef) done
Evaluating the coordinates              ...  done
Calculating the B-matrix                .... done
Calculating the G-matrix                .... done
Diagonalizing the G-matrix              .... done
The first mode is                       ....    1
The number of degrees of freedom        ....    6

    -----------------------------------------------------------------
                    Redundant Internal Coordinates


    -----------------------------------------------------------------
         Definition                    Initial Value    Approx d2E/dq
    -----------------------------------------------------------------
      1. B(O   1,C   0)                  1.2500         0.935915   
      2. B(H   2,C   0)                  1.1075         0.337678   
      3. B(H   3,C   0)                  1.1075         0.337678   
      4. A(O   1,C   0,H   3)          122.0160         0.372156   
      5. A(H   2,C   0,H   3)          115.9680         0.285050   
      6. A(O   1,C   0,H   2)          122.0160         0.372156   
      7. I(O   1,H   3,H   2,C   0)      0.0000         0.087144   
    -----------------------------------------------------------------

Number of atoms                         .... 4
Number of degrees of freedom            .... 7

         *************************************************************
         *                GEOMETRY OPTIMIZATION CYCLE   1            *
         *************************************************************
---------------------------------
CARTESIAN COORDINATES (ANGSTROEM)
---------------------------------
  C      0.000000    0.000000    0.000000
  O      1.250000    0.000000    0.000000
  H     -0.587148    0.939049    0.000000
  H     -0.587148   -0.939049   -0.000000

----------------------------
CARTESIAN COORDINATES (A.U.)
----------------------------
  NO LB      ZA    FRAG    MASS        X           Y           Z
   0 C     6.0000    0    12.011          0.000000000000000          0.000000000000000          0.000000000000000
   1 O     8.0000    0    15.999          2.362157667401565          0.000000000000000          0.000000000000000
   2 H     1.0000    0     1.008         -1.109548920079595          1.774545436332617          0.000000000000000
   3 H     1.0000    0     1.008         -1.109548920079595         -1.774545436332617         -0.000000000000000

--------------------------------
INTERNAL COORDINATES (ANGSTROEM)
--------------------------------
 C      0   0   0   0.000000     0.000     0.000
 O      1   0   0   1.250000     0.000     0.000
 H      1   2   0   1.107500   122.016     0.000
 H      1   2   3   1.107500   122.016   180.000

---------------------------
INTERNAL COORDINATES (A.U.)
---------------------------
 C      0   0   0   0.000000     0.000     0.000
 O      1   0   0   2.362158     0.000     0.000
 H      1   2   0   2.092871   122.016     0.000
 H      1   2   3   2.092871   122.016   180.000

---------------------
BASIS SET INFORMATION
---------------------
There are 3 groups of distinct atoms

 Group   1 Type C   : 11s6p2d1f contracted to 5s3p2d1f pattern {62111/411/11/1}
 Group   2 Type O   : 11s6p2d1f contracted to 5s3p2d1f pattern {62111/411/11/1}
 Group   3 Type H   : 5s1p contracted to 3s1p pattern {311/1}

Atom   0C    basis set group =>   1
Atom   1O    basis set group =>   2
Atom   2H    basis set group =>   3
Atom   3H    basis set group =>   3
------------------------------------------------------------------------------
                           ORCA GTO INTEGRAL CALCULATION
------------------------------------------------------------------------------

                         BASIS SET STATISTICS AND STARTUP INFO

 # of primitive gaussian shells          ...   52
 # of primitive gaussian functions       ...  108
 # of contracted shell                   ...   30
 # of contracted basis functions         ...   74
 Highest angular momentum                ...    3
 Maximum contraction depth               ...    6
 Integral package used                   ... LIBINT
 Integral threshhold            Thresh   ...  2.500e-11
 Primitive cut-off              TCut     ...  2.500e-12


                              INTEGRAL EVALUATION

 One electron integrals                  ... done
 Pre-screening matrix                    ... done
 Shell pair data                         ... done (   0.000 sec)

-------------------------------------------------------------------------------
                                 ORCA SCF
-------------------------------------------------------------------------------

------------
SCF SETTINGS
------------
Hamiltonian:
 Density Functional     Method          .... DFT(GTOs)
 Exchange Functional    Exchange        .... B88
   X-Alpha parameter    XAlpha          ....  0.666667
   Becke's b parameter  XBeta           ....  0.004200
 Correlation Functional Correlation     .... LYP
 LDA part of GGA corr.  LDAOpt          .... VWN-3
 Gradients option       PostSCFGGA      .... off
 Hybrid DFT is turned on
   Fraction HF Exchange ScalHFX         ....  0.200000
   Scaling of DF-GGA-X  ScalDFX         ....  0.720000
   Scaling of DF-GGA-C  ScalDFC         ....  0.810000
   Scaling of DF-LDA-C  ScalLDAC        ....  1.000000
   Perturbative correction              ....  0.000000
   NL short-range parameter             ....  4.800000


General Settings:
 Integral files         IntName         .... orca
 Hartree-Fock type      HFTyp           .... RHF
 Total Charge           Charge          ....    0
 Multiplicity           Mult            ....    1
 Number of Electrons    NEL             ....   16
 Basis Dimension        Dim             ....   74
 Nuclear Repulsion      ENuc            ....     30.4395927705 Eh

Convergence Acceleration:
 DIIS                   CNVDIIS         .... on
   Start iteration      DIISMaxIt       ....    12
   Startup error        DIISStart       ....  0.200000
   # of expansion vecs  DIISMaxEq       ....     5
   Bias factor          DIISBfac        ....   1.050
   Max. coefficient     DIISMaxC        ....  10.000
 Newton-Raphson         CNVNR           .... off
 SOSCF                  CNVSOSCF        .... on
   Start iteration      SOSCFMaxIt      ....   150
   Startup grad/error   SOSCFStart      ....  0.003300
 Level Shifting         CNVShift        .... on
   Level shift para.    LevelShift      ....    0.2500
   Turn off err/grad.   ShiftErr        ....    0.0010
 Zerner damping         CNVZerner       .... off
 Static damping         CNVDamp         .... on
   Fraction old density DampFac         ....    0.7000
   Max. Damping (<1)    DampMax         ....    0.9800
   Min. Damping (>=0)   DampMin         ....    0.0000
   Turn off err/grad.   DampErr         ....    0.1000
 Fernandez-Rico         CNVRico         .... off

SCF Procedure:
 Maximum # iterations   MaxIter         ....   125
 SCF integral mode      SCFMode         .... Direct
   Integral package                     .... LIBINT
 Reset frequeny         DirectResetFreq ....    20
 Integral Threshold     Thresh          ....  2.500e-11 Eh
 Primitive CutOff       TCut            ....  2.500e-12 Eh

Convergence Tolerance:
 Convergence Check Mode ConvCheckMode   .... Total+1el-Energy
 Energy Change          TolE            ....  1.000e-08 Eh
 1-El. energy change                    ....  1.000e-05 Eh
 Orbital Gradient       TolG            ....  1.000e-05
 Orbital Rotation angle TolX            ....  1.000e-05
 DIIS Error             TolErr          ....  5.000e-07


Diagonalization of the overlap matrix:
Smallest eigenvalue                        ... 1.702e-03
Time for diagonalization                   ...    0.004 sec
Threshold for overlap eigenvalues          ... 1.000e-08
Number of eigenvalues below threshold      ... 0
Time for construction of square roots      ...    0.002 sec
Total time needed                          ...    0.006 sec

-------------------
DFT GRID GENERATION
-------------------

General Integration Accuracy     IntAcc      ...  4.340
Radial Grid Type                 RadialGrid  ... Gauss-Chebyshev
Angular Grid (max. acc.)         AngularGrid ... Lebedev-110
Angular grid pruning method      GridPruning ... 3 (G Style)
Weight generation scheme         WeightScheme... Becke
Basis function cutoff            BFCut       ...    1.0000e-11
Integration weight cutoff        WCut        ...    1.0000e-14
Grids for H and He will be reduced by one unit

# of grid points (after initial pruning)     ...   4960 (   0.0 sec)
# of grid points (after weights+screening)   ...   4880 (   0.0 sec)
nearest neighbour list constructed           ...    0.0 sec
Grid point re-assignment to atoms done       ...    0.0 sec
Grid point division into batches done        ...    0.0 sec
Reduced shell lists constructed in    0.0 sec

Total number of grid points                  ...     4880
Total number of batches                      ...       79
Average number of points per batch           ...       61
Average number of grid points per atom       ...     1220
Average number of shells per batch           ...    25.35 (84.50%)
Average number of basis functions per batch  ...    64.15 (86.69%)
Average number of large shells per batch     ...    23.24 (91.67%)
Average number of large basis fcns per batch ...    59.01 (91.99%)
Maximum spatial batch extension              ...  19.73, 25.60, 23.60 au
Average spatial batch extension              ...   5.36,  4.68,  6.00 au

Time for grid setup =    0.037 sec

------------------------------
INITIAL GUESS: MODEL POTENTIAL
------------------------------
Loading Hartree-Fock densities                     ... done
Calculating cut-offs                               ... done
Setting up the integral package                    ... done
Initializing the effective Hamiltonian             ... done
Starting the Coulomb interaction                   ... done (   0.0 sec)
Reading the grid                                   ... done
Mapping shells                                     ... done
Starting the XC term evaluation                    ... done (   0.0 sec)
  promolecular density results
     # of electrons  =     15.997841676
     EX              =    -13.862350184
     EC              =     -0.534724637
     EX+EC           =    -14.397074821
Transforming the Hamiltonian                       ... done (   0.0 sec)
Diagonalizing the Hamiltonian                      ... done (   0.0 sec)
Back transforming the eigenvectors                 ... done (   0.0 sec)
Now organizing SCF variables                       ... done
                      ------------------
                      INITIAL GUESS DONE (   0.2 sec)
                      ------------------
--------------
SCF ITERATIONS
--------------
ITER       Energy         Delta-E        Max-DP      RMS-DP      [F,P]     Damp
               ***  Starting incremental Fock matrix formation  ***
  0   -114.4635614856   0.000000000000 0.05905143  0.00270615  0.3153177 0.7000
  1   -114.5092675638  -0.045706078179 0.03306202  0.00168956  0.1031477 0.7000
                               ***Turning on DIIS***
  2   -114.5198241619  -0.010556598100 0.03845650  0.00191140  0.0351976 0.0000
  3   -114.5478213851  -0.027997223178 0.02612158  0.00141200  0.0465578 0.0000
  4   -114.5491994572  -0.001378072147 0.00728250  0.00041374  0.0353919 0.0000
  5   -114.5503733517  -0.001173894430 0.00209311  0.00010195  0.0096458 0.0000
  6   -114.5504490377  -0.000075686069 0.00074115  0.00003083  0.0033565 0.0000
                      *** Initiating the SOSCF procedure ***
                           *** Shutting down DIIS ***
                      *** Re-Reading the Fockian *** 
                      *** Removing any level shift *** 
ITER      Energy       Delta-E        Grad      Rot      Max-DP    RMS-DP
  7   -114.55045716  -0.0000081208  0.000231  0.000231  0.000401  0.000016
               *** Restarting incremental Fock matrix formation ***
  8   -114.55045788  -0.0000007216  0.000057  0.000170  0.000108  0.000006
  9   -114.55045780   0.0000000762  0.000164  0.000150  0.000096  0.000004
 10   -114.55045790  -0.0000000982  0.000007  0.000012  0.000018  0.000001
 11   -114.55045790  -0.0000000001  0.000007  0.000005  0.000008  0.000000
                 **** Energy Check signals convergence ****
              ***Rediagonalizing the Fockian in SOSCF/NRSCF***

               *****************************************************
               *                     SUCCESS                       *
               *           SCF CONVERGED AFTER  12 CYCLES          *
               *****************************************************

Setting up the final grid:

General Integration Accuracy     IntAcc      ...  4.670
Radial Grid Type                 RadialGrid  ... Gauss-Chebyshev
Angular Grid (max. acc.)         AngularGrid ... Lebedev-302
Angular grid pruning method      GridPruning ... 3 (G Style)
Weight generation scheme         WeightScheme... Becke
Basis function cutoff            BFCut       ...    1.0000e-11
Integration weight cutoff        WCut        ...    1.0000e-14
Grids for H and He will be reduced by one unit

# of grid points (after initial pruning)     ...  19212 (   0.0 sec)
# of grid points (after weights+screening)   ...  18901 (   0.0 sec)
nearest neighbour list constructed           ...    0.0 sec
Grid point re-assignment to atoms done       ...    0.0 sec
Grid point division into batches done        ...    0.1 sec
Reduced shell lists constructed in    0.1 sec

Total number of grid points                  ...    18901
Total number of batches                      ...      298
Average number of points per batch           ...       63
Average number of grid points per atom       ...     4725
Average number of shells per batch           ...    23.21 (77.37%)
Average number of basis functions per batch  ...    58.88 (79.56%)
Average number of large shells per batch     ...    20.88 (89.94%)
Average number of large basis fcns per batch ...    52.88 (89.82%)
Maximum spatial batch extension              ...  17.94, 16.88, 20.64 au
Average spatial batch extension              ...   3.35,  3.16,  3.78 au

Final grid set up in    0.2 sec
Final integration                            ... done (   0.2 sec)
Change in XC energy                          ...    -0.000123641
Integrated number of electrons               ...    16.000028927
Previous integrated no of electrons          ...    15.998832825

----------------
TOTAL SCF ENERGY
----------------

Total Energy       :         -114.55058154 Eh           -3117.07979 eV

Components:
Nuclear Repulsion  :           30.43959277 Eh             828.30343 eV
Electronic Energy  :         -144.99017431 Eh           -3945.38322 eV

One Electron Energy:         -215.91361069 Eh           -5875.30804 eV
Two Electron Energy:           70.92343637 Eh            1929.92482 eV

Virial components:
Potential Energy   :         -228.41617842 Eh           -6215.52021 eV
Kinetic Energy     :          113.86559687 Eh            3098.44041 eV
Virial Ratio       :            2.00601573


DFT components:
N(Alpha)           :        8.000014463490 electrons
N(Beta)            :        8.000014463490 electrons
N(Total)           :       16.000028926981 electrons
E(X)               :      -11.175805000328 Eh       
E(C)               :       -0.696137484854 Eh       
E(XC)              :      -11.871942485182 Eh       

---------------
SCF CONVERGENCE
---------------

  Last Energy change         ...   -5.8743e-10  Tolerance :   1.0000e-08
  Last MAX-Density change    ...    4.2850e-07  Tolerance :   1.0000e-07
  Last RMS-Density change    ...    2.4941e-08  Tolerance :   5.0000e-09
  Last Orbital Gradient      ...    3.0342e-07  Tolerance :   1.0000e-05
  Last Orbital Rotation      ...    2.5956e-07  Tolerance :   1.0000e-05

             **** THE GBW FILE WAS UPDATED (orca.gbw) ****
             **** DENSITY FILE WAS UPDATED (orca.scfp.tmp) ****
             **** ENERGY FILE WAS UPDATED (orca.en.tmp) ****
----------------
ORBITAL ENERGIES
----------------

  NO   OCC          E(Eh)            E(eV) 
   0   2.0000     -19.152970      -521.1788 
   1   2.0000     -10.284307      -279.8502 
   2   2.0000      -1.045635       -28.4532 
   3   2.0000      -0.650106       -17.6903 
   4   2.0000      -0.498496       -13.5648 
   5   2.0000      -0.455080       -12.3834 
   6   2.0000      -0.396694       -10.7946 
   7   2.0000      -0.282232        -7.6799 
   8   0.0000      -0.071772        -1.9530 
   9   0.0000       0.048987         1.3330 
  10   0.0000       0.103569         2.8182 
  11   0.0000       0.105156         2.8614 
  12   0.0000       0.201930         5.4948 
  13   0.0000       0.205069         5.5802 
  14   0.0000       0.258418         7.0319 
  15   0.0000       0.392583        10.6827 
  16   0.0000       0.406262        11.0550 
  17   0.0000       0.429627        11.6907 
  18   0.0000       0.445034        12.1100 
  19   0.0000       0.497798        13.5458 
  20   0.0000       0.578348        15.7377 
  21   0.0000       0.590580        16.0705 
  22   0.0000       0.707032        19.2393 
  23   0.0000       0.776976        21.1426 
  24   0.0000       0.820996        22.3404 
  25   0.0000       0.943957        25.6864 
  26   0.0000       1.019216        27.7343 
  27   0.0000       1.299190        35.3527 
  28   0.0000       1.353046        36.8182 
  29   0.0000       1.436541        39.0903 
  30   0.0000       1.492262        40.6065 
  31   0.0000       1.502111        40.8745 
  32   0.0000       1.549231        42.1567 
  33   0.0000       1.638323        44.5810 
  34   0.0000       1.758968        47.8640 
  35   0.0000       1.880476        51.1704 
  36   0.0000       1.941656        52.8352 
  37   0.0000       1.969036        53.5802 
  38   0.0000       2.024492        55.0892 
  39   0.0000       2.116185        57.5843 
  40   0.0000       2.290852        62.3373 
  41   0.0000       2.393853        65.1400 
  42   0.0000       2.482360        67.5485 
  43   0.0000       2.543458        69.2110 
  44   0.0000       2.557008        69.5797 
  45   0.0000       2.869351        78.0790 
  46   0.0000       2.873955        78.2043 
  47   0.0000       2.922488        79.5249 
  48   0.0000       2.937175        79.9246 
  49   0.0000       2.950345        80.2830 
  50   0.0000       3.047559        82.9283 
  51   0.0000       3.138641        85.4068 
  52   0.0000       3.146564        85.6224 
  53   0.0000       3.217074        87.5410 
  54   0.0000       3.492876        95.0460 
  55   0.0000       3.615107        98.3721 
  56   0.0000       3.674468        99.9874 
  57   0.0000       3.967532       107.9620 
  58   0.0000       4.096211       111.4636 
  59   0.0000       4.327097       117.7463 
  60   0.0000       5.144267       139.9826 
  61   0.0000       5.152389       140.2036 
  62   0.0000       5.419826       147.4810 
  63   0.0000       5.540516       150.7651 
  64   0.0000       5.922784       161.1672 
  65   0.0000       6.103990       166.0980 
  66   0.0000       6.142289       167.1402 
  67   0.0000       6.273884       170.7211 
  68   0.0000       6.329942       172.2465 
  69   0.0000       6.728659       183.0961 
  70   0.0000       6.759163       183.9262 
  71   0.0000       6.945017       188.9835 
  72   0.0000      22.293147       606.6274 
  73   0.0000      43.426517      1181.6956 

                    ********************************
                    * MULLIKEN POPULATION ANALYSIS *
                    ********************************

-----------------------
MULLIKEN ATOMIC CHARGES
-----------------------
   0 C :    0.082155
   1 O :   -0.279968
   2 H :    0.098906
   3 H :    0.098906
Sum of atomic charges:    0.0000000

--------------------------------
MULLIKEN REDUCED ORBITAL CHARGES
--------------------------------
  0 C s       :     3.284788  s :     3.284788
      pz      :     0.707167  p :     2.506316
      px      :     0.787748
      py      :     1.011400
      dz2     :     0.006320  d :     0.115172
      dxz     :     0.022318
      dyz     :     0.000000
      dx2y2   :     0.013129
      dxy     :     0.073405
      f0      :     0.001623  f :     0.011569
      f+1     :     0.001003
      f-1     :     0.000373
      f+2     :     0.001840
      f-2     :     0.000000
      f+3     :     0.003001
      f-3     :     0.003729
  1 O s       :     3.851828  s :     3.851828
      pz      :     1.250600  p :     4.397871
      px      :     1.325192
      py      :     1.822079
      dz2     :     0.002538  d :     0.028663
      dxz     :     0.010793
      dyz     :     0.000000
      dx2y2   :     0.008044
      dxy     :     0.007288
      f0      :     0.000120  f :     0.001606
      f+1     :     0.000115
      f-1     :     0.000018
      f+2     :     0.000432
      f-2     :     0.000000
      f+3     :     0.000427
      f-3     :     0.000494
  2 H s       :     0.881689  s :     0.881689
      pz      :     0.002554  p :     0.019405
      px      :     0.005686
      py      :     0.011165
  3 H s       :     0.881689  s :     0.881689
      pz      :     0.002554  p :     0.019405
      px      :     0.005686
      py      :     0.011165


                     *******************************
                     * LOEWDIN POPULATION ANALYSIS *
                     *******************************

----------------------
LOEWDIN ATOMIC CHARGES
----------------------
   0 C :   -0.233756
   1 O :    0.051559
   2 H :    0.091098
   3 H :    0.091098

-------------------------------
LOEWDIN REDUCED ORBITAL CHARGES
-------------------------------
  0 C s       :     2.943824  s :     2.943824
      pz      :     0.706481  p :     2.756678
      px      :     0.984606
      py      :     1.065590
      dz2     :     0.030355  d :     0.462820
      dxz     :     0.055010
      dyz     :    -0.000000
      dx2y2   :     0.104571
      dxy     :     0.272884
      f0      :     0.005469  f :     0.070434
      f+1     :     0.009373
      f-1     :     0.002646
      f+2     :     0.010251
      f-2     :    -0.000000
      f+3     :     0.013959
      f-3     :     0.028736
  1 O s       :     3.463257  s :     3.463257
      pz      :     1.194995  p :     4.414182
      px      :     1.507168
      py      :     1.712019
      dz2     :     0.007887  d :     0.065748
      dxz     :     0.011685
      dyz     :     0.000000
      dx2y2   :     0.023985
      dxy     :     0.022192
      f0      :     0.000272  f :     0.005254
      f+1     :     0.000798
      f-1     :     0.000136
      f+2     :     0.000590
      f-2     :     0.000000
      f+3     :     0.001601
      f-3     :     0.001857
  2 H s       :     0.850070  s :     0.850070
      pz      :     0.007624  p :     0.058832
      px      :     0.016546
      py      :     0.034662
  3 H s       :     0.850070  s :     0.850070
      pz      :     0.007624  p :     0.058832
      px      :     0.016546
      py      :     0.034662


                      *****************************
                      * MAYER POPULATION ANALYSIS *
                      *****************************

  NA   - Mulliken gross atomic population
  ZA   - Total nuclear charge
  QA   - Mulliken gross atomic charge
  VA   - Mayer's total valence
  BVA  - Mayer's bonded valence
  FA   - Mayer's free valence

  ATOM       NA         ZA         QA         VA         BVA        FA
  0 C      5.9178     6.0000     0.0822     3.9008     3.9008     0.0000
  1 O      8.2800     8.0000    -0.2800     2.0907     2.0907    -0.0000
  2 H      0.9011     1.0000     0.0989     0.9320     0.9320     0.0000
  3 H      0.9011     1.0000     0.0989     0.9320     0.9320     0.0000

  Mayer bond orders larger than 0.1
B(  0-C ,  1-O ) :   2.0566 B(  0-C ,  2-H ) :   0.9221 B(  0-C ,  3-H ) :   0.9221 


-------
TIMINGS
-------

Total SCF time: 0 days 0 hours 0 min 6 sec 

Total time                  ....       6.912 sec
Sum of individual times     ....       7.029 sec  (101.7%)

Fock matrix formation       ....       6.589 sec  ( 95.3%)
  Coulomb formation         ....       5.698 sec  ( 86.5% of F)
  XC integration            ....       0.844 sec  ( 12.8% of F)
    Basis function eval.    ....       0.176 sec  ( 20.9% of XC)
    Density eval.           ....       0.127 sec  ( 15.0% of XC)
    XC-Functional eval.     ....       0.079 sec  (  9.3% of XC)
    XC-Potential eval.      ....       0.269 sec  ( 31.9% of XC)
Diagonalization             ....       0.017 sec  (  0.2%)
Density matrix formation    ....       0.001 sec  (  0.0%)
Population analysis         ....       0.005 sec  (  0.1%)
Initial guess               ....       0.197 sec  (  2.9%)
Orbital Transformation      ....       0.000 sec  (  0.0%)
Orbital Orthonormalization  ....       0.000 sec  (  0.0%)
DIIS solution               ....       0.006 sec  (  0.1%)
SOSCF solution              ....       0.018 sec  (  0.3%)
Grid generation             ....       0.196 sec  (  2.8%)

Entering the calculation of the dispersion correction...

Checking the input atom types...

Done


-------------------------------------------------------------------------------
                          DFT DISPERSION CORRECTION                            
                                                                               
                                DFTD3 V2.1  Rev 6                               
                          USING Becke-Johnson damping                          
-------------------------------------------------------------------------------
Gaussians B3LYP functional is recognized, using regular B3LYP params
Active option DFTDOPT                   ...         4   

molecular C6(AA) [au] = 146.474731 


            DFT-D V3
 parameters
 s6 scaling factor         :     1.0000 
 a1 scaling factor         :     0.3981 
 s8 scaling factor         :     1.9889 
 a2 scaling factor         :     4.4211 
 ad hoc parameters k1-k3   :    16.0000     1.3333    -4.0000 

 Edisp/kcal,au: -1.149354602216  -0.001831612951 
 E6   /kcal   :  -0.574815706 
 E8   /kcal   :  -0.574538896 
 % E8         :  49.987958012 

-------------------------   ----------------
Dispersion correction           -0.001831613
-------------------------   ----------------


-------------------------   --------------------
FINAL SINGLE POINT ENERGY      -114.552413157114
-------------------------   --------------------

------------------------------------------------------------------------------
                         ORCA SCF GRADIENT CALCULATION
------------------------------------------------------------------------------

Gradient of the Kohn-Sham DFT energy:
Kohn-Sham wavefunction type      ... RKS
Hartree-Fock exchange scaling    ...    0.200
Number of operators              ...    1
Number of atoms                  ...    4
Basis set dimensions             ...   74
Integral neglect threshold       ... 2.5e-11
Integral primitive cutoff        ... 2.5e-12

Nuclear repulsion gradient       ... done
One Electron Gradient            ... done
Pre-screening matrix             ... done
Starting the two electron gradient:
Two electron gradient done
Exchange-correlation gradient    ... done
Dispersion correction            ... 
Entering the calculation of the dispersion correction...

Checking the input atom types...

Done
done

------------------
CARTESIAN GRADIENT
------------------

   1   C   :   -0.064922786    0.000000000    0.000000000
   2   O   :    0.072308986    0.000000000   -0.000000001
   3   H   :   -0.003693100    0.001587228   -0.000000000
   4   H   :   -0.003693101   -0.001587228    0.000000001

Norm of the cartesian gradient     ...    0.097344102
RMS gradient                       ...    0.028100822
MAX gradient                       ...    0.072308986

-------
TIMINGS
-------

Total SCF gradient time            ...        2.449 sec

One electron gradient       ....       0.013 sec  (  0.5%)
Prescreening matrices       ....       0.088 sec  (  3.6%)
Two electron gradient       ....       1.573 sec  ( 64.2%)
XC gradient                 ....       0.574 sec  ( 23.4%)
------------------------------------------------------------------------------
                         ORCA GEOMETRY RELAXATION STEP
------------------------------------------------------------------------------

Reading the OPT-File                    .... done
Getting information on internals        .... done
Copying old internal coords+grads       .... done
Making the new internal coordinates     .... (new redundants).... done
Validating the new internal coordinates .... (new redundants).... done
Calculating the B-matrix                .... done
Calculating the G,G- and P matrices     .... done
Transforming gradient to internals      .... done
Projecting the internal gradient        .... done
Number of atoms                         ....   4
Number of internal coordinates          ....   7
Current Energy                          ....  -114.552413157 Eh
Current gradient norm                   ....     0.097344102 Eh/bohr
Maximum allowed component of the step   ....  0.300
Current trust radius                    ....  0.300
Evaluating the initial hessian          ....  (Almloef) done
Projecting the Hessian                  .... done
Forming the augmented Hessian           .... done
Diagonalizing the augmented Hessian     .... done
Last element of RFO vector              ....  0.996898255
Lowest eigenvalues of augmented Hessian:
 -0.005664463  0.087143688  0.314132819  0.337678425  0.337741545
Length of the computed step             ....  0.078946003
The final length of the internal step   ....  0.078946003
Converting the step to cartesian space:
 Initial RMS(Int)=    0.0298387846
Transforming coordinates:
 Iter   0:  RMS(Cart)=    0.0218031163 RMS(Int)=    0.0298396836
 Iter   1:  RMS(Cart)=    0.0000210117 RMS(Int)=    0.0000256285
 Iter   2:  RMS(Cart)=    0.0000001039 RMS(Int)=    0.0000001350
 Iter   3:  RMS(Cart)=    0.0000000003 RMS(Int)=    0.0000000004
done
Storing new coordinates                 .... done

                                .--------------------.
          ----------------------|Geometry convergence|---------------------
          Item                value                 Tolerance   Converged
          -----------------------------------------------------------------
          RMS gradient        0.02742713            0.00010000      NO
          MAX gradient        0.07230899            0.00030000      NO
          RMS step            0.02983878            0.00200000      NO
          MAX step            0.07679539            0.00400000      NO
          ....................................................
          Max(Bonds)      0.0406      Max(Angles)    0.57
          Max(Dihed)        0.00      Max(Improp)    0.00
          -----------------------------------------------------------------

The optimization has not yet converged - more geometry cycles are needed


    ---------------------------------------------------------------------------
                         Redundant Internal Coordinates
                            (Angstroem and degrees)

        Definition                    Value    dE/dq     Step     New-Value
    ----------------------------------------------------------------------------
     1. B(O   1,C   0)                1.2500  0.072309 -0.0406    1.2094   
     2. B(H   2,C   0)                1.1075  0.003304 -0.0051    1.1024   
     3. B(H   3,C   0)                1.1075  0.003304 -0.0051    1.1024   
     4. A(O   1,C   0,H   3)          122.02  0.001597   -0.29    121.73   
     5. A(H   2,C   0,H   3)          115.97 -0.003195    0.57    116.54   
     6. A(O   1,C   0,H   2)          122.02  0.001597   -0.29    121.73   
     7. I(O   1,H   3,H   2,C   0)      0.00  0.000000   -0.00     -0.00   
    ----------------------------------------------------------------------------

         *************************************************************
         *                GEOMETRY OPTIMIZATION CYCLE   2            *
         *************************************************************
---------------------------------
CARTESIAN COORDINATES (ANGSTROEM)
---------------------------------
  C      0.006471    0.000000   -0.000000
  O      1.215833   -0.000000    0.000000
  H     -0.573300    0.937640    0.000000
  H     -0.573300   -0.937640    0.000000

----------------------------
CARTESIAN COORDINATES (A.U.)
----------------------------
  NO LB      ZA    FRAG    MASS        X           Y           Z
   0 C     6.0000    0    12.011          0.012228841998499          0.000000000058606         -0.000000000722080
   1 O     8.0000    0    15.999          2.297591115461797         -0.000000000824601          0.000000000230775
   2 H     1.0000    0     1.008         -1.083380065897260          1.771882547199685          0.000000000245653
   3 H     1.0000    0     1.008         -1.083380064320661         -1.771882546433689          0.000000000245653

--------------------------------
INTERNAL COORDINATES (ANGSTROEM)
--------------------------------
 C      0   0   0   0.000000     0.000     0.000
 O      1   0   0   1.209362     0.000     0.000
 H      1   2   0   1.102408   121.730     0.000
 H      1   2   3   1.102408   121.730   180.000

---------------------------
INTERNAL COORDINATES (A.U.)
---------------------------
 C      0   0   0   0.000000     0.000     0.000
 O      1   0   0   2.285362     0.000     0.000
 H      1   2   0   2.083249   121.730     0.000
 H      1   2   3   2.083249   121.730   180.000


Diagonalization of the overlap matrix:
Smallest eigenvalue                        ... 1.479e-03
Time for diagonalization                   ...    0.003 sec
Threshold for overlap eigenvalues          ... 1.000e-08
Number of eigenvalues below threshold      ... 0
Time for construction of square roots      ...    0.004 sec
Total time needed                          ...    0.007 sec

-------------------
DFT GRID GENERATION
-------------------

General Integration Accuracy     IntAcc      ...  4.340
Radial Grid Type                 RadialGrid  ... Gauss-Chebyshev
Angular Grid (max. acc.)         AngularGrid ... Lebedev-110
Angular grid pruning method      GridPruning ... 3 (G Style)
Weight generation scheme         WeightScheme... Becke
Basis function cutoff            BFCut       ...    1.0000e-11
Integration weight cutoff        WCut        ...    1.0000e-14
Grids for H and He will be reduced by one unit

# of grid points (after initial pruning)     ...   4960 (   0.0 sec)
# of grid points (after weights+screening)   ...   4879 (   0.0 sec)
nearest neighbour list constructed           ...    0.0 sec
Grid point re-assignment to atoms done       ...    0.0 sec
Grid point division into batches done        ...    0.0 sec
Reduced shell lists constructed in    0.0 sec

Total number of grid points                  ...     4879
Total number of batches                      ...       79
Average number of points per batch           ...       61
Average number of grid points per atom       ...     1220
Average number of shells per batch           ...    25.35 (84.50%)
Average number of basis functions per batch  ...    64.15 (86.69%)
Average number of large shells per batch     ...    23.23 (91.62%)
Average number of large basis fcns per batch ...    59.20 (92.28%)
Maximum spatial batch extension              ...  19.64, 25.60, 23.60 au
Average spatial batch extension              ...   5.27,  4.66,  5.96 au

Time for grid setup =    0.026 sec

--------------
SCF ITERATIONS
--------------
ITER       Energy         Delta-E        Max-DP      RMS-DP      [F,P]     Damp
               ***  Starting incremental Fock matrix formation  ***
  0   -114.5529406141   0.000000000000 0.00313775  0.00015067  0.0178529 0.7000
                      *** Initiating the SOSCF procedure ***
                      *** Re-Reading the Fockian *** 
                      *** Removing any level shift *** 
ITER      Energy       Delta-E        Grad      Rot      Max-DP    RMS-DP
  1   -114.55324729  -0.0003066717  0.001679  0.001679  0.007620  0.000420
               *** Restarting incremental Fock matrix formation ***
  2   -114.55390579  -0.0006585043  0.002313  0.004590  0.006738  0.000330
  3   -114.55387612   0.0000296696  0.003610  0.004080  0.003042  0.000142
  4   -114.55394876  -0.0000726392  0.001117  0.001701  0.001750  0.000084
  5   -114.55394631   0.0000024495  0.000949  0.000677  0.001020  0.000055
  6   -114.55395679  -0.0000104755  0.000020  0.000022  0.000024  0.000002
  7   -114.55395679  -0.0000000044  0.000007  0.000003  0.000006  0.000000
                 **** Energy Check signals convergence ****
              ***Rediagonalizing the Fockian in SOSCF/NRSCF***

               *****************************************************
               *                     SUCCESS                       *
               *           SCF CONVERGED AFTER   8 CYCLES          *
               *****************************************************

Setting up the final grid:

General Integration Accuracy     IntAcc      ...  4.670
Radial Grid Type                 RadialGrid  ... Gauss-Chebyshev
Angular Grid (max. acc.)         AngularGrid ... Lebedev-302
Angular grid pruning method      GridPruning ... 3 (G Style)
Weight generation scheme         WeightScheme... Becke
Basis function cutoff            BFCut       ...    1.0000e-11
Integration weight cutoff        WCut        ...    1.0000e-14
Grids for H and He will be reduced by one unit

# of grid points (after initial pruning)     ...  19212 (   0.0 sec)
# of grid points (after weights+screening)   ...  18896 (   0.0 sec)
nearest neighbour list constructed           ...    0.0 sec
Grid point re-assignment to atoms done       ...    0.0 sec
Grid point division into batches done        ...    0.1 sec
Reduced shell lists constructed in    0.1 sec

Total number of grid points                  ...    18896
Total number of batches                      ...      298
Average number of points per batch           ...       63
Average number of grid points per atom       ...     4724
Average number of shells per batch           ...    23.24 (77.47%)
Average number of basis functions per batch  ...    58.93 (79.64%)
Average number of large shells per batch     ...    20.95 (90.13%)
Average number of large basis fcns per batch ...    53.07 (90.05%)
Maximum spatial batch extension              ...  17.47, 16.88, 20.64 au
Average spatial batch extension              ...   3.31,  3.14,  3.78 au

Final grid set up in    0.2 sec
Final integration                            ... done (   0.2 sec)
Change in XC energy                          ...    -0.000116835
Integrated number of electrons               ...    16.000025897
Previous integrated no of electrons          ...    15.998866285
Total Energy       :         -114.55407363 Eh           -3117.17482 eV
  Last Energy change         ...   -3.4346e-10  Tolerance :   1.0000e-08
  Last MAX-Density change    ...    4.9472e-07  Tolerance :   1.0000e-07
             **** THE GBW FILE WAS UPDATED (orca.gbw) ****
             **** DENSITY FILE WAS UPDATED (orca.scfp.tmp) ****
             **** ENERGY FILE WAS UPDATED (orca.en.tmp) ****
Total SCF time: 0 days 0 hours 0 min 4 sec 

Entering the calculation of the dispersion correction...

Checking the input atom types...

Done


-------------------------------------------------------------------------------
                          DFT DISPERSION CORRECTION                            
                                                                               
                                DFTD3 V2.1  Rev 6                               
                          USING Becke-Johnson damping                          
-------------------------------------------------------------------------------
-------------------------   ----------------
Dispersion correction           -0.001834709
-------------------------   ----------------


-------------------------   --------------------
FINAL SINGLE POINT ENERGY      -114.555908334028
-------------------------   --------------------

------------------------------------------------------------------------------
                         ORCA SCF GRADIENT CALCULATION
------------------------------------------------------------------------------

Gradient of the Kohn-Sham DFT energy:
Kohn-Sham wavefunction type      ... RKS
Hartree-Fock exchange scaling    ...    0.200
Number of operators              ...    1
Number of atoms                  ...    4
Basis set dimensions             ...   74
Integral neglect threshold       ... 2.5e-11
Integral primitive cutoff        ... 2.5e-12

Nuclear repulsion gradient       ... done
One Electron Gradient            ... done
Pre-screening matrix             ... done
Starting the two electron gradient:
Two electron gradient done
Exchange-correlation gradient    ... done
Dispersion correction            ... 
Entering the calculation of the dispersion correction...

Checking the input atom types...

Done
done

------------------
CARTESIAN GRADIENT
------------------

   1   C   :   -0.018823726    0.000000000   -0.000000000
   2   O   :    0.015764216    0.000000000   -0.000000000
   3   H   :    0.001529755   -0.001684711   -0.000000000
   4   H   :    0.001529755    0.001684710    0.000000000

Norm of the cartesian gradient     ...    0.024762875
RMS gradient                       ...    0.007148426
MAX gradient                       ...    0.018823726

-------
TIMINGS
-------

Total SCF gradient time            ...        2.458 sec

One electron gradient       ....       0.013 sec  (  0.5%)
Prescreening matrices       ....       0.088 sec  (  3.6%)
Two electron gradient       ....       1.579 sec  ( 64.3%)
XC gradient                 ....       0.576 sec  ( 23.4%)
------------------------------------------------------------------------------
                         ORCA GEOMETRY RELAXATION STEP
------------------------------------------------------------------------------

Reading the OPT-File                    .... done
Getting information on internals        .... done
Copying old internal coords+grads       .... done
Making the new internal coordinates     .... (new redundants).... done
Validating the new internal coordinates .... (new redundants).... done
Calculating the B-matrix                .... done
Calculating the G,G- and P matrices     .... done
Transforming gradient to internals      .... done
Projecting the internal gradient        .... done
Number of atoms                         ....   4
Number of internal coordinates          ....   7
Current Energy                          ....  -114.555908334 Eh
Current gradient norm                   ....     0.024762875 Eh/bohr
Maximum allowed component of the step   ....  0.300
Current trust radius                    ....  0.300
Updating the Hessian (BFGS)             .... done
Forming the augmented Hessian           .... done
Diagonalizing the augmented Hessian     .... done
Last element of RFO vector              ....  0.999680382
Lowest eigenvalues of augmented Hessian:
 -0.000390320  0.087143688  0.315428434  0.337678425  0.344088957
Length of the computed step             ....  0.025289164
The final length of the internal step   ....  0.025289164
Converting the step to cartesian space:
 Initial RMS(Int)=    0.0095584054
Transforming coordinates:
 Iter   0:  RMS(Cart)=    0.0053209945 RMS(Int)=    0.0095582899
 Iter   1:  RMS(Cart)=    0.0000030877 RMS(Int)=    0.0000040089
 Iter   2:  RMS(Cart)=    0.0000000126 RMS(Int)=    0.0000000158
done
Storing new coordinates                 .... done

                                .--------------------.
          ----------------------|Geometry convergence|---------------------
          Item                value                 Tolerance   Converged
          -----------------------------------------------------------------
          Energy change      -0.00349518            0.00000500      NO
          RMS gradient        0.00608301            0.00010000      NO
          MAX gradient        0.01576422            0.00030000      NO
          RMS step            0.00955841            0.00200000      NO
          MAX step            0.02231151            0.00400000      NO
          ....................................................
          Max(Bonds)      0.0118      Max(Angles)    0.13
          Max(Dihed)        0.00      Max(Improp)    0.00
          -----------------------------------------------------------------

The optimization has not yet converged - more geometry cycles are needed


    ---------------------------------------------------------------------------
                         Redundant Internal Coordinates
                            (Angstroem and degrees)

        Definition                    Value    dE/dq     Step     New-Value
    ----------------------------------------------------------------------------
     1. B(O   1,C   0)                1.2094  0.015764 -0.0118    1.1976   
     2. B(H   2,C   0)                1.1024 -0.002237  0.0043    1.1067   
     3. B(H   3,C   0)                1.1024 -0.002237  0.0043    1.1067   
     4. A(O   1,C   0,H   3)          121.73 -0.000288    0.06    121.79   
     5. A(H   2,C   0,H   3)          116.54  0.000577   -0.13    116.42   
     6. A(O   1,C   0,H   2)          121.73 -0.000288    0.06    121.79   
     7. I(O   1,H   3,H   2,C   0)     -0.00 -0.000000    0.00     -0.00   
    ----------------------------------------------------------------------------

         *************************************************************
         *                GEOMETRY OPTIMIZATION CYCLE   3            *
         *************************************************************
---------------------------------
CARTESIAN COORDINATES (ANGSTROEM)
---------------------------------
  C      0.011079    0.000000   -0.000000
  O      1.208634   -0.000000    0.000000
  H     -0.572004    0.940695    0.000000
  H     -0.572004   -0.940695    0.000000

----------------------------
CARTESIAN COORDINATES (A.U.)
----------------------------
  NO LB      ZA    FRAG    MASS        X           Y           Z
   0 C     6.0000    0    12.011          0.020935604646412          0.000000000187564         -0.000000000361389
   1 O     8.0000    0    15.999          2.283986371929618         -0.000000002500209          0.000000000111460
   2 H     1.0000    0     1.008         -1.080931077020299          1.777655853010979          0.000000000124964
   3 H     1.0000    0     1.008         -1.080931072313356         -1.777655850698334          0.000000000124964

--------------------------------
INTERNAL COORDINATES (ANGSTROEM)
--------------------------------
 C      0   0   0   0.000000     0.000     0.000
 O      1   0   0   1.197555     0.000     0.000
 H      1   2   0   1.106749   121.792     0.000
 H      1   2   3   1.106749   121.792   180.000

---------------------------
INTERNAL COORDINATES (A.U.)
---------------------------
 C      0   0   0   0.000000     0.000     0.000
 O      1   0   0   2.263051     0.000     0.000
 H      1   2   0   2.091452   121.792     0.000
 H      1   2   3   2.091452   121.792   180.000


Diagonalization of the overlap matrix:
Smallest eigenvalue                        ... 1.422e-03
Time for diagonalization                   ...    0.004 sec
Threshold for overlap eigenvalues          ... 1.000e-08
Number of eigenvalues below threshold      ... 0
Time for construction of square roots      ...    0.008 sec
Total time needed                          ...    0.011 sec

-------------------
DFT GRID GENERATION
-------------------

General Integration Accuracy     IntAcc      ...  4.340
Radial Grid Type                 RadialGrid  ... Gauss-Chebyshev
Angular Grid (max. acc.)         AngularGrid ... Lebedev-110
Angular grid pruning method      GridPruning ... 3 (G Style)
Weight generation scheme         WeightScheme... Becke
Basis function cutoff            BFCut       ...    1.0000e-11
Integration weight cutoff        WCut        ...    1.0000e-14
Grids for H and He will be reduced by one unit

# of grid points (after initial pruning)     ...   4960 (   0.0 sec)
# of grid points (after weights+screening)   ...   4879 (   0.0 sec)
nearest neighbour list constructed           ...    0.0 sec
Grid point re-assignment to atoms done       ...    0.0 sec
Grid point division into batches done        ...    0.0 sec
Reduced shell lists constructed in    0.0 sec

Total number of grid points                  ...     4879
Total number of batches                      ...       79
Average number of points per batch           ...       61
Average number of grid points per atom       ...     1220
Average number of shells per batch           ...    25.41 (84.71%)
Average number of basis functions per batch  ...    64.36 (86.98%)
Average number of large shells per batch     ...    23.29 (91.64%)
Average number of large basis fcns per batch ...    59.26 (92.08%)
Maximum spatial batch extension              ...  19.63, 25.60, 23.60 au
Average spatial batch extension              ...   5.34,  4.70,  5.97 au

Time for grid setup =    0.050 sec

--------------
SCF ITERATIONS
--------------
ITER       Energy         Delta-E        Max-DP      RMS-DP      [F,P]     Damp
               ***  Starting incremental Fock matrix formation  ***
                      *** Initiating the SOSCF procedure ***
                      *** Re-Reading the Fockian *** 
                      *** Removing any level shift *** 
ITER      Energy       Delta-E        Grad      Rot      Max-DP    RMS-DP
  0   -114.55401522 -114.5540152214  0.002657  0.002657  0.003352  0.000168
               *** Restarting incremental Fock matrix formation ***
  1   -114.55411050  -0.0000952756  0.001188  0.003090  0.003357  0.000172
  2   -114.55408790   0.0000225979  0.003078  0.002874  0.002019  0.000088
  3   -114.55412685  -0.0000389476  0.000252  0.000378  0.000537  0.000028
  4   -114.55412683   0.0000000184  0.000257  0.000212  0.000293  0.000016
  5   -114.55412762  -0.0000007924  0.000004  0.000004  0.000007  0.000000
                 **** Energy Check signals convergence ****
              ***Rediagonalizing the Fockian in SOSCF/NRSCF***

               *****************************************************
               *                     SUCCESS                       *
               *           SCF CONVERGED AFTER   6 CYCLES          *
               *****************************************************

Setting up the final grid:

General Integration Accuracy     IntAcc      ...  4.670
Radial Grid Type                 RadialGrid  ... Gauss-Chebyshev
Angular Grid (max. acc.)         AngularGrid ... Lebedev-302
Angular grid pruning method      GridPruning ... 3 (G Style)
Weight generation scheme         WeightScheme... Becke
Basis function cutoff            BFCut       ...    1.0000e-11
Integration weight cutoff        WCut        ...    1.0000e-14
Grids for H and He will be reduced by one unit

# of grid points (after initial pruning)     ...  19212 (   0.0 sec)
# of grid points (after weights+screening)   ...  18896 (   0.0 sec)
nearest neighbour list constructed           ...    0.0 sec
Grid point re-assignment to atoms done       ...    0.0 sec
Grid point division into batches done        ...    0.1 sec
Reduced shell lists constructed in    0.1 sec

Total number of grid points                  ...    18896
Total number of batches                      ...      297
Average number of points per batch           ...       63
Average number of grid points per atom       ...     4724
Average number of shells per batch           ...    23.23 (77.43%)
Average number of basis functions per batch  ...    58.89 (79.58%)
Average number of large shells per batch     ...    20.95 (90.19%)
Average number of large basis fcns per batch ...    53.12 (90.21%)
Maximum spatial batch extension              ...  17.47, 16.88, 20.64 au
Average spatial batch extension              ...   3.33,  3.15,  3.79 au

Final grid set up in    0.2 sec
Final integration                            ... done (   0.2 sec)
Change in XC energy                          ...    -0.000112049
Integrated number of electrons               ...    16.000023413
Previous integrated no of electrons          ...    15.998915269
Total Energy       :         -114.55423967 Eh           -3117.17934 eV
  Last Energy change         ...   -2.2540e-10  Tolerance :   1.0000e-08
  Last MAX-Density change    ...    1.4312e-06  Tolerance :   1.0000e-07
             **** THE GBW FILE WAS UPDATED (orca.gbw) ****
             **** DENSITY FILE WAS UPDATED (orca.scfp.tmp) ****
             **** ENERGY FILE WAS UPDATED (orca.en.tmp) ****
Total SCF time: 0 days 0 hours 0 min 3 sec 

Entering the calculation of the dispersion correction...

Checking the input atom types...

Done


-------------------------------------------------------------------------------
                          DFT DISPERSION CORRECTION                            
                                                                               
                                DFTD3 V2.1  Rev 6                               
                          USING Becke-Johnson damping                          
-------------------------------------------------------------------------------
-------------------------   ----------------
Dispersion correction           -0.001835169
-------------------------   ----------------


-------------------------   --------------------
FINAL SINGLE POINT ENERGY      -114.556074839145
-------------------------   --------------------

------------------------------------------------------------------------------
                         ORCA SCF GRADIENT CALCULATION
------------------------------------------------------------------------------

Gradient of the Kohn-Sham DFT energy:
Kohn-Sham wavefunction type      ... RKS
Hartree-Fock exchange scaling    ...    0.200
Number of operators              ...    1
Number of atoms                  ...    4
Basis set dimensions             ...   74
Integral neglect threshold       ... 2.5e-11
Integral primitive cutoff        ... 2.5e-12

Nuclear repulsion gradient       ... done
One Electron Gradient            ... done
Pre-screening matrix             ... done
Starting the two electron gradient:
Two electron gradient done
Exchange-correlation gradient    ... done
Dispersion correction            ... 
Entering the calculation of the dispersion correction...

Checking the input atom types...

Done
done

------------------
CARTESIAN GRADIENT
------------------

   1   C   :    0.000466029   -0.000000000    0.000000000
   2   O   :   -0.002606495    0.000000000   -0.000000000
   3   H   :    0.001070233   -0.000000922    0.000000000
   4   H   :    0.001070233    0.000000922    0.000000000

Norm of the cartesian gradient     ...    0.003049885
RMS gradient                       ...    0.000880426
MAX gradient                       ...    0.002606495

-------
TIMINGS
-------

Total SCF gradient time            ...        2.474 sec

One electron gradient       ....       0.013 sec  (  0.5%)
Prescreening matrices       ....       0.089 sec  (  3.6%)
Two electron gradient       ....       1.585 sec  ( 64.1%)
XC gradient                 ....       0.575 sec  ( 23.2%)
------------------------------------------------------------------------------
                         ORCA GEOMETRY RELAXATION STEP
------------------------------------------------------------------------------

Reading the OPT-File                    .... done
Getting information on internals        .... done
Copying old internal coords+grads       .... done
Making the new internal coordinates     .... (new redundants).... done
Validating the new internal coordinates .... (new redundants).... done
Calculating the B-matrix                .... done
Calculating the G,G- and P matrices     .... done
Transforming gradient to internals      .... done
Projecting the internal gradient        .... done
Number of atoms                         ....   4
Number of internal coordinates          ....   7
Current Energy                          ....  -114.556074839 Eh
Current gradient norm                   ....     0.003049885 Eh/bohr
Maximum allowed component of the step   ....  0.300
Current trust radius                    ....  0.300
Updating the Hessian (BFGS)             .... done
Forming the augmented Hessian           .... done
Diagonalizing the augmented Hessian     .... done
Last element of RFO vector              ....  0.999985480
Lowest eigenvalues of augmented Hessian:
 -0.000014815  0.087143688  0.299794887  0.334103862  0.337678425
Length of the computed step             ....  0.005388946
The final length of the internal step   ....  0.005388946
Converting the step to cartesian space:
 Initial RMS(Int)=    0.0020368301
Transforming coordinates:
 Iter   0:  RMS(Cart)=    0.0016002249 RMS(Int)=    0.0020365907
 Iter   1:  RMS(Cart)=    0.0000016838 RMS(Int)=    0.0000020805
 Iter   2:  RMS(Cart)=    0.0000000018 RMS(Int)=    0.0000000030
done
Storing new coordinates                 .... done

                                .--------------------.
          ----------------------|Geometry convergence|---------------------
          Item                value                 Tolerance   Converged
          -----------------------------------------------------------------
          Energy change      -0.00016651            0.00000500      NO
          RMS gradient        0.00118574            0.00010000      NO
          MAX gradient        0.00260650            0.00030000      NO
          RMS step            0.00203683            0.00200000      NO
          MAX step            0.00356276            0.00400000      YES
          ....................................................
          Max(Bonds)      0.0013      Max(Angles)    0.20
          Max(Dihed)        0.00      Max(Improp)    0.00
          -----------------------------------------------------------------

The optimization has not yet converged - more geometry cycles are needed


    ---------------------------------------------------------------------------
                         Redundant Internal Coordinates
                            (Angstroem and degrees)

        Definition                    Value    dE/dq     Step     New-Value
    ----------------------------------------------------------------------------
     1. B(O   1,C   0)                1.1976 -0.002606  0.0013    1.1989   
     2. B(H   2,C   0)                1.1067 -0.000565  0.0007    1.1075   
     3. B(H   3,C   0)                1.1067 -0.000565  0.0007    1.1075   
     4. A(O   1,C   0,H   3)          121.79 -0.000634    0.10    121.89   
     5. A(H   2,C   0,H   3)          116.42  0.001268   -0.20    116.21   
     6. A(O   1,C   0,H   2)          121.79 -0.000634    0.10    121.89   
     7. I(O   1,H   3,H   2,C   0)     -0.00  0.000000   -0.00     -0.00   
    ----------------------------------------------------------------------------

         *************************************************************
         *                GEOMETRY OPTIMIZATION CYCLE   4            *
         *************************************************************
---------------------------------
CARTESIAN COORDINATES (ANGSTROEM)
---------------------------------
  C      0.011780    0.000000   -0.000000
  O      1.210651   -0.000000    0.000000
  H     -0.573364    0.940276    0.000000
  H     -0.573364   -0.940276    0.000000

----------------------------
CARTESIAN COORDINATES (A.U.)
----------------------------
  NO LB      ZA    FRAG    MASS        X           Y           Z
   0 C     6.0000    0    12.011          0.022261809231591          0.000000000386006         -0.000000000960662
   1 O     8.0000    0    15.999          2.287798357633636         -0.000000002370319          0.000000000307490
   2 H     1.0000    0     1.008         -1.083500171975132          1.776863826265593          0.000000000326586
   3 H     1.0000    0     1.008         -1.083500167647720         -1.776863824281280          0.000000000326586

--------------------------------
INTERNAL COORDINATES (ANGSTROEM)
--------------------------------
 C      0   0   0   0.000000     0.000     0.000
 O      1   0   0   1.198870     0.000     0.000
 H      1   2   0   1.107480   121.894     0.000
 H      1   2   3   1.107480   121.894   180.000

---------------------------
INTERNAL COORDINATES (A.U.)
---------------------------
 C      0   0   0   0.000000     0.000     0.000
 O      1   0   0   2.265537     0.000     0.000
 H      1   2   0   2.092834   121.894     0.000
 H      1   2   3   2.092834   121.894   180.000


Diagonalization of the overlap matrix:
Smallest eigenvalue                        ... 1.428e-03
Time for diagonalization                   ...    0.003 sec
Threshold for overlap eigenvalues          ... 1.000e-08
Number of eigenvalues below threshold      ... 0
Time for construction of square roots      ...    0.017 sec
Total time needed                          ...    0.020 sec

-------------------
DFT GRID GENERATION
-------------------

General Integration Accuracy     IntAcc      ...  4.340
Radial Grid Type                 RadialGrid  ... Gauss-Chebyshev
Angular Grid (max. acc.)         AngularGrid ... Lebedev-110
Angular grid pruning method      GridPruning ... 3 (G Style)
Weight generation scheme         WeightScheme... Becke
Basis function cutoff            BFCut       ...    1.0000e-11
Integration weight cutoff        WCut        ...    1.0000e-14
Grids for H and He will be reduced by one unit

# of grid points (after initial pruning)     ...   4960 (   0.0 sec)
# of grid points (after weights+screening)   ...   4879 (   0.0 sec)
nearest neighbour list constructed           ...    0.0 sec
Grid point re-assignment to atoms done       ...    0.0 sec
Grid point division into batches done        ...    0.0 sec
Reduced shell lists constructed in    0.0 sec

Total number of grid points                  ...     4879
Total number of batches                      ...       79
Average number of points per batch           ...       61
Average number of grid points per atom       ...     1220
Average number of shells per batch           ...    25.41 (84.71%)
Average number of basis functions per batch  ...    64.44 (87.08%)
Average number of large shells per batch     ...    23.29 (91.64%)
Average number of large basis fcns per batch ...    59.26 (91.97%)
Maximum spatial batch extension              ...  19.63, 25.60, 23.60 au
Average spatial batch extension              ...   5.34,  4.71,  5.96 au

Time for grid setup =    0.027 sec

--------------
SCF ITERATIONS
--------------
ITER       Energy         Delta-E        Max-DP      RMS-DP      [F,P]     Damp
               ***  Starting incremental Fock matrix formation  ***
                      *** Initiating the SOSCF procedure ***
                      *** Re-Reading the Fockian *** 
                      *** Removing any level shift *** 
ITER      Energy       Delta-E        Grad      Rot      Max-DP    RMS-DP
  0   -114.55413588 -114.5541358757  0.000295  0.000295  0.000338  0.000021
               *** Restarting incremental Fock matrix formation ***
  1   -114.55413706  -0.0000011881  0.000104  0.000137  0.000229  0.000013
  2   -114.55413710  -0.0000000352  0.000096  0.000132  0.000088  0.000004
  3   -114.55413717  -0.0000000725  0.000051  0.000072  0.000090  0.000005
  4   -114.55413716   0.0000000083  0.000046  0.000032  0.000054  0.000003
                  ***Gradient check signals convergence***
              ***Rediagonalizing the Fockian in SOSCF/NRSCF***

               *****************************************************
               *                     SUCCESS                       *
               *           SCF CONVERGED AFTER   5 CYCLES          *
               *****************************************************

Setting up the final grid:

General Integration Accuracy     IntAcc      ...  4.670
Radial Grid Type                 RadialGrid  ... Gauss-Chebyshev
Angular Grid (max. acc.)         AngularGrid ... Lebedev-302
Angular grid pruning method      GridPruning ... 3 (G Style)
Weight generation scheme         WeightScheme... Becke
Basis function cutoff            BFCut       ...    1.0000e-11
Integration weight cutoff        WCut        ...    1.0000e-14
Grids for H and He will be reduced by one unit

# of grid points (after initial pruning)     ...  19212 (   0.0 sec)
# of grid points (after weights+screening)   ...  18896 (   0.0 sec)
nearest neighbour list constructed           ...    0.0 sec
Grid point re-assignment to atoms done       ...    0.0 sec
Grid point division into batches done        ...    0.1 sec
Reduced shell lists constructed in    0.1 sec

Total number of grid points                  ...    18896
Total number of batches                      ...      297
Average number of points per batch           ...       63
Average number of grid points per atom       ...     4724
Average number of shells per batch           ...    23.22 (77.42%)
Average number of basis functions per batch  ...    58.89 (79.58%)
Average number of large shells per batch     ...    20.95 (90.19%)
Average number of large basis fcns per batch ...    53.05 (90.09%)
Maximum spatial batch extension              ...  17.48, 16.88, 20.64 au
Average spatial batch extension              ...   3.33,  3.14,  3.77 au

Final grid set up in    0.2 sec
Final integration                            ... done (   0.2 sec)
Change in XC energy                          ...    -0.000112253
Integrated number of electrons               ...    16.000023495
Previous integrated no of electrons          ...    15.998926371
Total Energy       :         -114.55424944 Eh           -3117.17960 eV
  Last Energy change         ...   -2.1535e-08  Tolerance :   1.0000e-08
  Last MAX-Density change    ...    1.3588e-06  Tolerance :   1.0000e-07
             **** THE GBW FILE WAS UPDATED (orca.gbw) ****
             **** DENSITY FILE WAS UPDATED (orca.scfp.tmp) ****
             **** ENERGY FILE WAS UPDATED (orca.en.tmp) ****
Total SCF time: 0 days 0 hours 0 min 3 sec 

Entering the calculation of the dispersion correction...

Checking the input atom types...

Done


-------------------------------------------------------------------------------
                          DFT DISPERSION CORRECTION                            
                                                                               
                                DFTD3 V2.1  Rev 6                               
                          USING Becke-Johnson damping                          
-------------------------------------------------------------------------------
-------------------------   ----------------
Dispersion correction           -0.001835017
-------------------------   ----------------


-------------------------   --------------------
FINAL SINGLE POINT ENERGY      -114.556084455254
-------------------------   --------------------

------------------------------------------------------------------------------
                         ORCA SCF GRADIENT CALCULATION
------------------------------------------------------------------------------

Gradient of the Kohn-Sham DFT energy:
Kohn-Sham wavefunction type      ... RKS
Hartree-Fock exchange scaling    ...    0.200
Number of operators              ...    1
Number of atoms                  ...    4
Basis set dimensions             ...   74
Integral neglect threshold       ... 2.5e-11
Integral primitive cutoff        ... 2.5e-12

Nuclear repulsion gradient       ... done
One Electron Gradient            ... done
Pre-screening matrix             ... done
Starting the two electron gradient:
Two electron gradient done
Exchange-correlation gradient    ... done
Dispersion correction            ... 
Entering the calculation of the dispersion correction...

Checking the input atom types...

Done
done

------------------
CARTESIAN GRADIENT
------------------

   1   C   :   -0.000901478    0.000000000   -0.000000000
   2   O   :   -0.000093363    0.000000000   -0.000000000
   3   H   :    0.000497420    0.000208035    0.000000000
   4   H   :    0.000497421   -0.000208035    0.000000000

Norm of the cartesian gradient     ...    0.001184395
RMS gradient                       ...    0.000341905
MAX gradient                       ...    0.000901478

-------
TIMINGS
-------

Total SCF gradient time            ...        2.471 sec

One electron gradient       ....       0.013 sec  (  0.5%)
Prescreening matrices       ....       0.090 sec  (  3.6%)
Two electron gradient       ....       1.585 sec  ( 64.1%)
XC gradient                 ....       0.582 sec  ( 23.6%)
------------------------------------------------------------------------------
                         ORCA GEOMETRY RELAXATION STEP
------------------------------------------------------------------------------

Reading the OPT-File                    .... done
Getting information on internals        .... done
Copying old internal coords+grads       .... done
Making the new internal coordinates     .... (new redundants).... done
Validating the new internal coordinates .... (new redundants).... done
Calculating the B-matrix                .... done
Calculating the G,G- and P matrices     .... done
Transforming gradient to internals      .... done
Projecting the internal gradient        .... done
Number of atoms                         ....   4
Number of internal coordinates          ....   7
Current Energy                          ....  -114.556084455 Eh
Current gradient norm                   ....     0.001184395 Eh/bohr
Maximum allowed component of the step   ....  0.300
Current trust radius                    ....  0.300
Updating the Hessian (BFGS)             .... done
Forming the augmented Hessian           .... done
Diagonalizing the augmented Hessian     .... done
Last element of RFO vector              ....  0.999987027
Lowest eigenvalues of augmented Hessian:
 -0.000004680  0.087143688  0.179177900  0.335582124  0.337678425
Length of the computed step             ....  0.005093768
The final length of the internal step   ....  0.005093768
Converting the step to cartesian space:
 Initial RMS(Int)=    0.0019252633
Transforming coordinates:
 Iter   0:  RMS(Cart)=    0.0013634007 RMS(Int)=    0.0019250932
 Iter   1:  RMS(Cart)=    0.0000018428 RMS(Int)=    0.0000024062
 Iter   2:  RMS(Cart)=    0.0000000026 RMS(Int)=    0.0000000040
done
Storing new coordinates                 .... done

                                .--------------------.
          ----------------------|Geometry convergence|---------------------
          Item                value                 Tolerance   Converged
          -----------------------------------------------------------------
          Energy change      -0.00000962            0.00000500      NO
          RMS gradient        0.00034862            0.00010000      NO
          MAX gradient        0.00074259            0.00030000      NO
          RMS step            0.00192526            0.00200000      YES
          MAX step            0.00407352            0.00400000      NO
          ....................................................
          Max(Bonds)      0.0004      Max(Angles)    0.23
          Max(Dihed)        0.00      Max(Improp)    0.00
          -----------------------------------------------------------------

The optimization has not yet converged - more geometry cycles are needed


    ---------------------------------------------------------------------------
                         Redundant Internal Coordinates
                            (Angstroem and degrees)

        Definition                    Value    dE/dq     Step     New-Value
    ----------------------------------------------------------------------------
     1. B(O   1,C   0)                1.1989 -0.000093  0.0001    1.1990   
     2. B(H   2,C   0)                1.1075 -0.000086  0.0004    1.1079   
     3. B(H   3,C   0)                1.1075 -0.000086  0.0004    1.1079   
     4. A(O   1,C   0,H   3)          121.89 -0.000371    0.12    122.01   
     5. A(H   2,C   0,H   3)          116.21  0.000743   -0.23    115.98   
     6. A(O   1,C   0,H   2)          121.89 -0.000371    0.12    122.01   
     7. I(O   1,H   3,H   2,C   0)     -0.00 -0.000000    0.00      0.00   
    ----------------------------------------------------------------------------

         *************************************************************
         *                GEOMETRY OPTIMIZATION CYCLE   5            *
         *************************************************************
---------------------------------
CARTESIAN COORDINATES (ANGSTROEM)
---------------------------------
  C      0.012808    0.000000    0.000000
  O      1.211794   -0.000000   -0.000000
  H     -0.574449    0.939401   -0.000000
  H     -0.574449   -0.939401   -0.000000

----------------------------
CARTESIAN COORDINATES (A.U.)
----------------------------
  NO LB      ZA    FRAG    MASS        X           Y           Z
   0 C     6.0000    0    12.011          0.024203523916022          0.000000000191403          0.000000000106294
   1 O     8.0000    0    15.999          2.289959365501597         -0.000000002161397         -0.000000000043218
   2 H     1.0000    0     1.008         -1.085551533109293          1.775209955142358         -0.000000000031538
[...]
 Orbital Gradient       TolG            ....  1.000e-05
 Orbital Rotation angle TolX            ....  1.000e-05
 DIIS Error             TolErr          ....  5.000e-07


Diagonalization of the overlap matrix:
Smallest eigenvalue                        ... 1.427e-03
Time for diagonalization                   ...    0.004 sec
Threshold for overlap eigenvalues          ... 1.000e-08
Number of eigenvalues below threshold      ... 0
Time for construction of square roots      ...    0.009 sec
Total time needed                          ...    0.013 sec

---------------------
INITIAL GUESS: MOREAD
---------------------
Guess MOs are being read from file: orca.gbw
Input Geometry matches current geometry (good)
Input basis set matches current basis set (good)
MOs were renormalized
MOs were reorthogonalized (Schmidt)
                      ------------------
                      INITIAL GUESS DONE (   0.0 sec)
                      ------------------
-------------------
DFT GRID GENERATION
-------------------

General Integration Accuracy     IntAcc      ...  4.340
Radial Grid Type                 RadialGrid  ... Gauss-Chebyshev
Angular Grid (max. acc.)         AngularGrid ... Lebedev-110
Angular grid pruning method      GridPruning ... 3 (G Style)
Weight generation scheme         WeightScheme... Becke
Basis function cutoff            BFCut       ...    1.0000e-11
Integration weight cutoff        WCut        ...    1.0000e-14
Grids for H and He will be reduced by one unit

# of grid points (after initial pruning)     ...   4960 (   0.0 sec)
# of grid points (after weights+screening)   ...   4879 (   0.0 sec)
nearest neighbour list constructed           ...    0.0 sec
Grid point re-assignment to atoms done       ...    0.0 sec
Grid point division into batches done        ...    0.0 sec
Reduced shell lists constructed in    0.0 sec

Total number of grid points                  ...     4879
Total number of batches                      ...       79
Average number of points per batch           ...       61
Average number of grid points per atom       ...     1220
Average number of shells per batch           ...    25.43 (84.75%)
Average number of basis functions per batch  ...    64.45 (87.09%)
Average number of large shells per batch     ...    23.29 (91.59%)
Average number of large basis fcns per batch ...    59.26 (91.95%)
Maximum spatial batch extension              ...  19.64, 25.60, 23.60 au
Average spatial batch extension              ...   5.34,  4.72,  5.95 au

Time for grid setup =    0.025 sec

--------------
SCF ITERATIONS
--------------
ITER       Energy         Delta-E        Max-DP      RMS-DP      [F,P]     Damp
               ***  Starting incremental Fock matrix formation  ***
                      *** Initiating the SOSCF procedure ***
                      *** Re-Reading the Fockian *** 
                      *** Removing any level shift *** 
ITER      Energy       Delta-E        Grad      Rot      Max-DP    RMS-DP
  0   -114.55413824 -114.5541382388  0.000017  0.000017  0.000023  0.000001
               *** Restarting incremental Fock matrix formation ***
  1   -114.55413824  -0.0000000038  0.000007  0.000016  0.000019  0.000001
  2   -114.55413824   0.0000000002  0.000010  0.000012  0.000009  0.000000
  3   -114.55413824  -0.0000000005  0.000003  0.000005  0.000005  0.000000
  4   -114.55413824  -0.0000000000  0.000003  0.000002  0.000003  0.000000
                 **** Energy Check signals convergence ****
              ***Rediagonalizing the Fockian in SOSCF/NRSCF***

               *****************************************************
               *                     SUCCESS                       *
               *           SCF CONVERGED AFTER   5 CYCLES          *
               *****************************************************

Setting up the final grid:

General Integration Accuracy     IntAcc      ...  4.670
Radial Grid Type                 RadialGrid  ... Gauss-Chebyshev
Angular Grid (max. acc.)         AngularGrid ... Lebedev-302
Angular grid pruning method      GridPruning ... 3 (G Style)
Weight generation scheme         WeightScheme... Becke
Basis function cutoff            BFCut       ...    1.0000e-11
Integration weight cutoff        WCut        ...    1.0000e-14
Grids for H and He will be reduced by one unit

# of grid points (after initial pruning)     ...  19212 (   0.0 sec)
# of grid points (after weights+screening)   ...  18896 (   0.0 sec)
nearest neighbour list constructed           ...    0.0 sec
Grid point re-assignment to atoms done       ...    0.0 sec
Grid point division into batches done        ...    0.1 sec
Reduced shell lists constructed in    0.1 sec

Total number of grid points                  ...    18896
Total number of batches                      ...      297
Average number of points per batch           ...       63
Average number of grid points per atom       ...     4724
Average number of shells per batch           ...    23.23 (77.45%)
Average number of basis functions per batch  ...    58.90 (79.59%)
Average number of large shells per batch     ...    20.90 (89.96%)
Average number of large basis fcns per batch ...    53.02 (90.01%)
Maximum spatial batch extension              ...  17.48, 16.88, 20.64 au
Average spatial batch extension              ...   3.33,  3.16,  3.79 au

Final grid set up in    0.2 sec
Final integration                            ... done (   0.2 sec)
Change in XC energy                          ...    -0.000113751
Integrated number of electrons               ...    16.000022887
Previous integrated no of electrons          ...    15.998945018

----------------
TOTAL SCF ENERGY
----------------

Total Energy       :         -114.55425199 Eh           -3117.17967 eV

Components:
Nuclear Repulsion  :           31.39877669 Eh             854.40415 eV
Electronic Energy  :         -145.95302868 Eh           -3971.58382 eV

One Electron Energy:         -217.74577845 Eh           -5925.16386 eV
Two Electron Energy:           71.79274977 Eh            1953.58004 eV

Virial components:
Potential Energy   :         -228.60464490 Eh           -6220.64864 eV
Kinetic Energy     :          114.05039290 Eh            3103.46897 eV
Virial Ratio       :            2.00441786


DFT components:
N(Alpha)           :        8.000011443725 electrons
N(Beta)            :        8.000011443725 electrons
N(Total)           :       16.000022887450 electrons
E(X)               :      -11.207990250988 Eh       
E(C)               :       -0.698165769817 Eh       
E(XC)              :      -11.906156020805 Eh       

---------------
SCF CONVERGENCE
---------------

  Last Energy change         ...   -1.3664e-10  Tolerance :   1.0000e-08
  Last MAX-Density change    ...    8.8841e-08  Tolerance :   1.0000e-07
  Last RMS-Density change    ...    4.3614e-09  Tolerance :   5.0000e-09
  Last Orbital Gradient      ...    8.1360e-08  Tolerance :   1.0000e-05
  Last Orbital Rotation      ...    9.9073e-08  Tolerance :   1.0000e-05

             **** THE GBW FILE WAS UPDATED (orca.gbw) ****
             **** DENSITY FILE WAS UPDATED (orca.scfp.tmp) ****
             **** ENERGY FILE WAS UPDATED (orca.en.tmp) ****
----------------
ORBITAL ENERGIES
----------------

  NO   OCC          E(Eh)            E(eV) 
   0   2.0000     -19.149807      -521.0928 
   1   2.0000     -10.276106      -279.6271 
   2   2.0000      -1.072562       -29.1859 
   3   2.0000      -0.642589       -17.4857 
   4   2.0000      -0.505330       -13.7507 
   5   2.0000      -0.462255       -12.5786 
   6   2.0000      -0.412500       -11.2247 
   7   2.0000      -0.279510        -7.6059 
   8   0.0000      -0.058330        -1.5872 
   9   0.0000       0.051339         1.3970 
  10   0.0000       0.106634         2.9017 
  11   0.0000       0.109111         2.9691 
  12   0.0000       0.203744         5.5442 
  13   0.0000       0.204508         5.5650 
  14   0.0000       0.256865         6.9897 
  15   0.0000       0.391140        10.6435 
  16   0.0000       0.412160        11.2154 
  17   0.0000       0.435311        11.8454 
  18   0.0000       0.486394        13.2354 
  19   0.0000       0.497763        13.5448 
  20   0.0000       0.578023        15.7288 
  21   0.0000       0.595468        16.2035 
  22   0.0000       0.710589        19.3361 
  23   0.0000       0.791054        21.5257 
  24   0.0000       0.818509        22.2728 
  25   0.0000       0.950224        25.8569 
  26   0.0000       1.064441        28.9649 
  27   0.0000       1.303985        35.4832 
  28   0.0000       1.353752        36.8375 
  29   0.0000       1.436130        39.0791 
  30   0.0000       1.459317        39.7100 
  31   0.0000       1.485863        40.4324 
  32   0.0000       1.575821        42.8803 
  33   0.0000       1.640525        44.6410 
  34   0.0000       1.762849        47.9696 
  35   0.0000       1.896320        51.6015 
  36   0.0000       1.961980        53.3882 
  37   0.0000       1.972059        53.6625 
  38   0.0000       2.033811        55.3428 
  39   0.0000       2.159193        58.7546 
  40   0.0000       2.278697        62.0065 
  41   0.0000       2.408069        65.5269 
  42   0.0000       2.494518        67.8793 
  43   0.0000       2.545398        69.2638 
  44   0.0000       2.579214        70.1840 
  45   0.0000       2.870810        78.1187 
  46   0.0000       2.882130        78.4267 
  47   0.0000       2.947889        80.2161 
  48   0.0000       2.965165        80.6863 
  49   0.0000       2.993083        81.4459 
  50   0.0000       3.044796        82.8531 
  51   0.0000       3.146693        85.6259 
  52   0.0000       3.153711        85.8168 
  53   0.0000       3.234524        88.0159 
  54   0.0000       3.551695        96.6465 
  55   0.0000       3.691002       100.4373 
  56   0.0000       3.710081       100.9564 
  57   0.0000       3.954125       107.5972 
  58   0.0000       4.035354       109.8076 
  59   0.0000       4.373279       119.0030 
  60   0.0000       5.147265       140.0642 
  61   0.0000       5.158735       140.3763 
  62   0.0000       5.481217       149.1515 
  63   0.0000       5.626955       153.1172 
  64   0.0000       6.037519       164.2892 
  65   0.0000       6.225104       169.3937 
  66   0.0000       6.283101       170.9719 
  67   0.0000       6.288926       171.1304 
  68   0.0000       6.346269       172.6908 
  69   0.0000       6.734080       183.2436 
  70   0.0000       6.770784       184.2424 
  71   0.0000       7.001901       190.5314 
  72   0.0000      22.365330       608.5916 
  73   0.0000      43.478268      1183.1038 

                    ********************************
                    * MULLIKEN POPULATION ANALYSIS *
                    ********************************

-----------------------
MULLIKEN ATOMIC CHARGES
-----------------------
   0 C :    0.061863
   1 O :   -0.229926
   2 H :    0.084032
   3 H :    0.084032
Sum of atomic charges:   -0.0000000

--------------------------------
MULLIKEN REDUCED ORBITAL CHARGES
--------------------------------
  0 C s       :     3.280347  s :     3.280347
      pz      :     0.707115  p :     2.517305
      px      :     0.810007
      py      :     1.000183
      dz2     :     0.006766  d :     0.127766
      dxz     :     0.024692
      dyz     :     0.000000
      dx2y2   :     0.016322
      dxy     :     0.079986
      f0      :     0.001802  f :     0.012719
      f+1     :     0.001188
      f-1     :     0.000379
      f+2     :     0.002114
      f-2     :     0.000000
      f+3     :     0.003081
      f-3     :     0.004155
  1 O s       :     3.821073  s :     3.821073
      pz      :     1.246691  p :     4.377160
      px      :     1.331341
      py      :     1.799128
      dz2     :     0.002300  d :     0.029921
      dxz     :     0.012040
      dyz     :     0.000000
      dx2y2   :     0.007126
      dxy     :     0.008455
      f0      :     0.000150  f :     0.001772
      f+1     :     0.000100
      f-1     :     0.000022
      f+2     :     0.000504
      f-2     :     0.000000
      f+3     :     0.000391
      f-3     :     0.000604
  2 H s       :     0.896711  s :     0.896711
      pz      :     0.002446  p :     0.019257
      px      :     0.005713
      py      :     0.011098
  3 H s       :     0.896711  s :     0.896711
      pz      :     0.002446  p :     0.019257
      px      :     0.005713
      py      :     0.011098


                     *******************************
                     * LOEWDIN POPULATION ANALYSIS *
                     *******************************

----------------------
LOEWDIN ATOMIC CHARGES
----------------------
   0 C :   -0.278222
   1 O :    0.105346
   2 H :    0.086438
   3 H :    0.086438

-------------------------------
LOEWDIN REDUCED ORBITAL CHARGES
-------------------------------
  0 C s       :     2.927906  s :     2.927906
      pz      :     0.707685  p :     2.765660
      px      :     1.005651
      py      :     1.052324
      dz2     :     0.032026  d :     0.504148
      dxz     :     0.060304
      dyz     :     0.000000
      dx2y2   :     0.109667
      dxy     :     0.302151
      f0      :     0.006551  f :     0.080509
      f+1     :     0.009673
      f-1     :     0.002753
      f+2     :     0.012184
      f-2     :     0.000000
      f+3     :     0.014791
      f-3     :     0.034557
  1 O s       :     3.424140  s :     3.424140
      pz      :     1.183937  p :     4.390406
      px      :     1.533564
      py      :     1.672904
      dz2     :     0.008199  d :     0.073593
      dxz     :     0.013445
      dyz     :     0.000000
      dx2y2   :     0.024929
      dxy     :     0.027020
      f0      :     0.000369  f :     0.006515
      f+1     :     0.000945
      f-1     :     0.000170
      f+2     :     0.000765
      f-2     :     0.000000
      f+3     :     0.001858
      f-3     :     0.002408
  2 H s       :     0.855635  s :     0.855635
      pz      :     0.007380  p :     0.057927
      px      :     0.016269
      py      :     0.034277
  3 H s       :     0.855635  s :     0.855635
      pz      :     0.007380  p :     0.057927
      px      :     0.016269
      py      :     0.034277


                      *****************************
                      * MAYER POPULATION ANALYSIS *
                      *****************************

  NA   - Mulliken gross atomic population
  ZA   - Total nuclear charge
  QA   - Mulliken gross atomic charge
  VA   - Mayer's total valence
  BVA  - Mayer's bonded valence
  FA   - Mayer's free valence

  ATOM       NA         ZA         QA         VA         BVA        FA
  0 C      5.9381     6.0000     0.0619     3.9340     3.9340    -0.0000
  1 O      8.2299     8.0000    -0.2299     2.1312     2.1312     0.0000
  2 H      0.9160     1.0000     0.0840     0.9309     0.9309    -0.0000
  3 H      0.9160     1.0000     0.0840     0.9309     0.9309    -0.0000

  Mayer bond orders larger than 0.1
B(  0-C ,  1-O ) :   2.0944 B(  0-C ,  2-H ) :   0.9198 B(  0-C ,  3-H ) :   0.9198 


-------
TIMINGS
-------

Total SCF time: 0 days 0 hours 0 min 3 sec 

Total time                  ....       3.350 sec
Sum of individual times     ....       3.321 sec  ( 99.1%)

Fock matrix formation       ....       3.091 sec  ( 92.3%)
  Coulomb formation         ....       2.591 sec  ( 83.8% of F)
  XC integration            ....       0.486 sec  ( 15.7% of F)
    Basis function eval.    ....       0.103 sec  ( 21.2% of XC)
    Density eval.           ....       0.073 sec  ( 15.0% of XC)
    XC-Functional eval.     ....       0.044 sec  (  9.1% of XC)
    XC-Potential eval.      ....       0.151 sec  ( 31.2% of XC)
Diagonalization             ....       0.002 sec  (  0.1%)
Density matrix formation    ....       0.000 sec  (  0.0%)
Population analysis         ....       0.016 sec  (  0.5%)
Initial guess               ....       0.003 sec  (  0.1%)
Orbital Transformation      ....       0.000 sec  (  0.0%)
Orbital Orthonormalization  ....       0.002 sec  (  0.1%)
DIIS solution               ....       0.000 sec  (  0.0%)
SOSCF solution              ....       0.026 sec  (  0.8%)
Grid generation             ....       0.182 sec  (  5.4%)

Entering the calculation of the dispersion correction...

Checking the input atom types...

Done


-------------------------------------------------------------------------------
                          DFT DISPERSION CORRECTION                            
                                                                               
                                DFTD3 V2.1  Rev 6                               
                          USING Becke-Johnson damping                          
-------------------------------------------------------------------------------
Gaussians B3LYP functional is recognized, using regular B3LYP params
Active option DFTDOPT                   ...         4   

molecular C6(AA) [au] = 146.467283 


            DFT-D V3
 parameters
 s6 scaling factor         :     1.0000 
 a1 scaling factor         :     0.3981 
 s8 scaling factor         :     1.9889 
 a2 scaling factor         :     4.4211 
 ad hoc parameters k1-k3   :    16.0000     1.3333    -4.0000 

 Edisp/kcal,au: -1.151453808745  -0.001834958249 
 E6   /kcal   :  -0.576229113 
 E8   /kcal   :  -0.575224696 
 % E8         :  49.956384839 

-------------------------   ----------------
Dispersion correction           -0.001834958
-------------------------   ----------------


-------------------------   --------------------
FINAL SINGLE POINT ENERGY      -114.556086952260
-------------------------   --------------------

                                *** OPTIMIZATION RUN DONE ***

                            ***************************************
                            *     ORCA property calculations      *
                            ***************************************

                                    ---------------------
                                    Active property flags
                                    ---------------------
   (+) Dipole Moment


------------------------------------------------------------------------------
                       ORCA ELECTRIC PROPERTIES CALCULATION
------------------------------------------------------------------------------

Dipole Moment Calculation                       ... on
Quadrupole Moment Calculation                   ... off
Polarizability Calculation                      ... off
GBWName                                         ... orca.gbw
Electron density file                           ... orca.scfp.tmp

-------------
DIPOLE MOMENT
-------------
                                X             Y             Z
Electronic contribution:      1.30426      -0.00000       0.00000
Nuclear contribution   :     -2.21903       0.00000      -0.00000
                        -----------------------------------------
Total Dipole Moment    :     -0.91477       0.00000       0.00000
                        -----------------------------------------
Magnitude (a.u.)       :      0.91477
Magnitude (Debye)      :      2.32515


Timings for individual modules:

Sum of individual times         ...       49.020 sec (=   0.817 min)
GTO integral calculation        ...        4.070 sec (=   0.068 min)   8.3 %
SCF iterations                  ...       29.866 sec (=   0.498 min)  60.9 %
SCF Gradient evaluation         ...       14.891 sec (=   0.248 min)  30.4 %
Geometry relaxation             ...        0.192 sec (=   0.003 min)   0.4 %
                             ****ORCA TERMINATED NORMALLY****
TOTAL RUN TIME: 0 days 0 hours 0 minutes 49 seconds 698 msec


------------------------------------------------------
Statistics for LoadLeveler job ll1-ib0.2985012.0:

number of nodes: 1
number of MPI tasks: 8
number of OpenMP threads per task: 1

memory consumption (high water mark): 0.25 GB

average CPU usage: 10.8 %

