
                                 *****************
                                 * O   R   C   A *
                                 *****************

           --- An Ab Initio, DFT and Semiempirical electronic structure package ---

                  #######################################################
                  #                        -***-                        #
                  #  Department of molecular theory and spectroscopy    #
                  #              Directorship: Frank Neese              #
                  # Max Planck Institute for Chemical Energy Conversion #
                  #                  D-45470 Muelheim/Ruhr              #
                  #                       Germany                       #
                  #                                                     #
                  #                  All rights reserved                #
                  #                        -***-                        #
                  #######################################################


                         Program Version 3.0.3 - RELEASE   -


 With contributions from (in alphabetic order):
   Ute Becker             : Parallelization
   Dmytro Bykov           : SCF Hessian
   Dmitry Ganyushin       : Spin-Orbit,Spin-Spin,Magnetic field MRCI
   Andreas Hansen         : Spin unrestricted coupled pair/coupled cluster methods
   Dimitrios Liakos       : Extrapolation schemes; parallel MDCI
   Robert Izsak           : Overlap fitted RIJCOSX, COSX-SCS-MP3
   Christian Kollmar      : KDIIS, OOCD, Brueckner-CCSD(T), CCSD density
   Simone Kossmann        : Meta GGA functionals, TD-DFT gradient, OOMP2, MP2 Hessian
   Taras Petrenko         : DFT Hessian,TD-DFT gradient, ASA and ECA modules, normal mode analysis, Resonance Raman, ABS, FL, XAS/XES, NRVS
   Christoph Reimann      : Effective Core Potentials
   Michael Roemelt        : Restricted open shell CIS
   Christoph Riplinger    : Improved optimizer, TS searches, QM/MM, DLPNO-CCSD
   Barbara Sandhoefer     : DKH picture change effects
   Igor Schapiro          : Molecular dynamics
   Kantharuban Sivalingam : CASSCF convergence, NEVPT2
   Boris Wezisla          : Elementary symmetry handling
   Frank Wennmohs         : Technical directorship


 We gratefully acknowledge several colleagues who have allowed us to
 interface, adapt or use parts of their codes:
   Stefan Grimme, W. Hujo, H. Kruse, T. Risthaus : VdW corrections, initial TS optimization,
                                                   DFT functionals, gCP
   Ed Valeev                                     : LibInt (2-el integral package), F12 methods
   Garnet Chan, S. Sharma, R. Olivares           : DMRG
   Ulf Ekstrom                                   : XCFun DFT Library
   Mihaly Kallay                                 : mrcc  (arbitrary order and MRCC methods)
   Andreas Klamt, Michael Diedenhofen            : otool_cosmo (COSMO solvation model)
   Frank Weinhold                                : gennbo (NPA and NBO analysis)
   Christopher J. Cramer and Donald G. Truhlar   : smd solvation model


 Your calculation uses the libint2 library for the computation of 2-el integrals
 For citations please refer to: http://libint.valeyev.net

 This ORCA versions uses:
   CBLAS   interface :  Fast vector & matrix operations
   LAPACKE interface :  Fast linear algebra routines


Your calculation utilizes the basis: Ahlrichs-TZV
Cite in your paper:
H - Kr: A. Schaefer, H. Horn and R. Ahlrichs, J. Chem. Phys. 97, 2571 (1992).

The def2-TZV basis will be loaded
Cite in your paper:
 	F. Weigend, R. Ahlrichs, Phys. Chem. Chem. Phys. 2005, 7, 3297.

================================================================================
                                        WARNINGS
                       Please study these warnings very carefully!
================================================================================

WARNING: The RI method has been chosen with no auxiliary basis (AUX or GTOAUX in BASIS block)
        Standard TZV/J expansion basis used (GTOAUX=TZV_J)

Now building the actual basis set


INFO   : the flag for use of LIBINT has been found!

================================================================================
                                       INPUT FILE
================================================================================
NAME = orca.inp
|  1> ! BP86 def2-TZVP TIGHTSCF 
|  2> #
|  3> %maxcore 1024
|  4> #
|  5> *xyz 0 1
|  6> C      0.000000    0.000000    0.000000
|  7> O      1.250000    0.000000    0.000000
|  8> *
|  9> 
| 10>                          ****END OF INPUT****
================================================================================

                       ****************************
                       * Single Point Calculation *
                       ****************************

---------------------------------
CARTESIAN COORDINATES (ANGSTROEM)
---------------------------------
  C      0.000000    0.000000    0.000000
  O      1.250000    0.000000    0.000000

----------------------------
CARTESIAN COORDINATES (A.U.)
----------------------------
  NO LB      ZA    FRAG    MASS        X           Y           Z
   0 C     6.0000    0    12.011          0.000000000000000          0.000000000000000          0.000000000000000
   1 O     8.0000    0    15.999          2.362157667401565          0.000000000000000          0.000000000000000

--------------------------------
INTERNAL COORDINATES (ANGSTROEM)
--------------------------------
 C      0   0   0   0.000000     0.000     0.000
 O      1   0   0   1.250000     0.000     0.000

---------------------------
INTERNAL COORDINATES (A.U.)
---------------------------
 C      0   0   0   0.000000     0.000     0.000
 O      1   0   0   2.362158     0.000     0.000

---------------------
BASIS SET INFORMATION
---------------------
There are 2 groups of distinct atoms

 Group   1 Type C   : 11s6p2d1f contracted to 5s3p2d1f pattern {62111/411/11/1}
 Group   2 Type O   : 11s6p2d1f contracted to 5s3p2d1f pattern {62111/411/11/1}

Atom   0C    basis set group =>   1
Atom   1O    basis set group =>   2
-------------------------------
AUXILIARY BASIS SET INFORMATION
-------------------------------
There are 2 groups of distinct atoms

 Group   1 Type C   : 12s5p4d2f1g contracted to 6s4p3d1f1g pattern {711111/2111/211/2/1}
 Group   2 Type O   : 12s5p4d2f1g contracted to 6s4p3d1f1g pattern {711111/2111/211/2/1}

Atom   0C    basis set group =>   1
Atom   1O    basis set group =>   2
------------------------------------------------------------------------------
                           ORCA GTO INTEGRAL CALCULATION
                           -- RI-GTO INTEGRALS CHOSEN --
------------------------------------------------------------------------------

                         BASIS SET STATISTICS AND STARTUP INFO

Gaussian basis set:
 # of primitive gaussian shells          ...   40
 # of primitive gaussian functions       ...   92
 # of contracted shells                  ...   22
 # of contracted basis functions         ...   62
 Highest angular momentum                ...    3
 Maximum contraction depth               ...    6
Auxiliary gaussian basis set:
 # of primitive gaussian shells          ...   48
 # of primitive gaussian functions       ...  140
 # of contracted shells                  ...   30
 # of contracted aux-basis functions     ...   98
 Highest angular momentum                ...    4
 Maximum contraction depth               ...    7
Ratio of auxiliary to basis functions    ...  1.58
Integral package used                  ... LIBINT
 One Electron integrals                  ... done
 Ordering auxiliary basis shells         ... done
 Integral threshhold             Thresh  ...  2.500e-11
 Primitive cut-off               TCut    ...  2.500e-12
 Pre-screening matrix                    ... done
 Shell pair data                         ... 
 Ordering of the shell pairs             ... done (   0.000 sec) 252 of 253 pairs
 Determination of significant pairs      ... done (   0.000 sec)
 Creation of shell pair data             ... done (   0.000 sec)
 Storage of shell pair data              ... done (   0.002 sec)
 Shell pair data done in (   0.002 sec)
 Computing two index integrals           ... done
 Cholesky decomposition of the V-matrix  ... done


Timings:
 Total evaluation time                   ...   0.136 sec (  0.002 min)
 One electron matrix time                ...   0.009 sec (  0.000 min) =  6.3%
 Schwartz matrix evaluation time         ...   0.087 sec (  0.001 min) = 63.9%
 Two index repulsion integral time       ...   0.002 sec (  0.000 min) =  1.2%
 Cholesky decomposition of V             ...   0.003 sec (  0.000 min) =  2.5%
 Three index repulsion integral time     ...   0.000 sec (  0.000 min) =  0.0%

-------------------------------------------------------------------------------
                                 ORCA SCF
-------------------------------------------------------------------------------

------------
SCF SETTINGS
------------
Hamiltonian:
 Density Functional     Method          .... DFT(GTOs)
 Exchange Functional    Exchange        .... B88
   X-Alpha parameter    XAlpha          ....  0.666667
   Becke's b parameter  XBeta           ....  0.004200
 Correlation Functional Correlation     .... P86
 LDA part of GGA corr.  LDAOpt          .... PW91-LDA
 Gradients option       PostSCFGGA      .... off
 RI-approximation to the Coulomb term is turned on
   Number of auxiliary basis functions  .... 98


General Settings:
 Integral files         IntName         .... orca
 Hartree-Fock type      HFTyp           .... RHF
 Total Charge           Charge          ....    0
 Multiplicity           Mult            ....    1
 Number of Electrons    NEL             ....   14
 Basis Dimension        Dim             ....   62
 Nuclear Repulsion      ENuc            ....     20.3204047987 Eh

Convergence Acceleration:
 DIIS                   CNVDIIS         .... on
   Start iteration      DIISMaxIt       ....    12
   Startup error        DIISStart       ....  0.200000
   # of expansion vecs  DIISMaxEq       ....     5
   Bias factor          DIISBfac        ....   1.050
   Max. coefficient     DIISMaxC        ....  10.000
 Newton-Raphson         CNVNR           .... off
 SOSCF                  CNVSOSCF        .... on
   Start iteration      SOSCFMaxIt      ....   150
   Startup grad/error   SOSCFStart      ....  0.003300
 Level Shifting         CNVShift        .... on
   Level shift para.    LevelShift      ....    0.2500
   Turn off err/grad.   ShiftErr        ....    0.0010
 Zerner damping         CNVZerner       .... off
 Static damping         CNVDamp         .... on
   Fraction old density DampFac         ....    0.7000
   Max. Damping (<1)    DampMax         ....    0.9800
   Min. Damping (>=0)   DampMin         ....    0.0000
   Turn off err/grad.   DampErr         ....    0.1000
 Fernandez-Rico         CNVRico         .... off

SCF Procedure:
 Maximum # iterations   MaxIter         ....   125
 SCF integral mode      SCFMode         .... Direct
   Integral package                     .... LIBINT
 Reset frequeny         DirectResetFreq ....    20
 Integral Threshold     Thresh          ....  2.500e-11 Eh
 Primitive CutOff       TCut            ....  2.500e-12 Eh

Convergence Tolerance:
 Convergence Check Mode ConvCheckMode   .... Total+1el-Energy
 Energy Change          TolE            ....  1.000e-08 Eh
 1-El. energy change                    ....  1.000e-05 Eh
 Orbital Gradient       TolG            ....  1.000e-05
 Orbital Rotation angle TolX            ....  1.000e-05
 DIIS Error             TolErr          ....  5.000e-07


Diagonalization of the overlap matrix:
Smallest eigenvalue                        ... 1.785e-03
Time for diagonalization                   ...    0.004 sec
Threshold for overlap eigenvalues          ... 1.000e-08
Number of eigenvalues below threshold      ... 0
Time for construction of square roots      ...    0.003 sec
Total time needed                          ...    0.007 sec

-------------------
DFT GRID GENERATION
-------------------

General Integration Accuracy     IntAcc      ...  4.340
Radial Grid Type                 RadialGrid  ... Gauss-Chebyshev
Angular Grid (max. acc.)         AngularGrid ... Lebedev-110
Angular grid pruning method      GridPruning ... 3 (G Style)
Weight generation scheme         WeightScheme... Becke
Basis function cutoff            BFCut       ...    1.0000e-11
Integration weight cutoff        WCut        ...    1.0000e-14
Grids for H and He will be reduced by one unit

# of grid points (after initial pruning)     ...   3372 (   0.0 sec)
# of grid points (after weights+screening)   ...   3346 (   0.0 sec)
nearest neighbour list constructed           ...    0.0 sec
Grid point re-assignment to atoms done       ...    0.0 sec
Grid point division into batches done        ...    0.0 sec
Reduced shell lists constructed in    0.0 sec

Total number of grid points                  ...     3346
Total number of batches                      ...       53
Average number of points per batch           ...       63
Average number of grid points per atom       ...     1673
Average number of shells per batch           ...    18.37 (83.50%)
Average number of basis functions per batch  ...    53.81 (86.80%)
Average number of large shells per batch     ...    17.09 (93.04%)
Average number of large basis fcns per batch ...    50.72 (94.25%)
Maximum spatial batch extension              ...  17.69, 25.60, 31.36 au
Average spatial batch extension              ...   5.85,  7.28,  6.79 au

Time for grid setup =    0.017 sec

------------------------------
INITIAL GUESS: MODEL POTENTIAL
------------------------------
Loading Hartree-Fock densities                     ... done
Calculating cut-offs                               ... done
Setting up the integral package                    ... done
Initializing the effective Hamiltonian             ... done
Starting the Coulomb interaction                   ... done (   0.0 sec)
Reading the grid                                   ... done
Mapping shells                                     ... done
Starting the XC term evaluation                    ... done (   0.0 sec)
  promolecular density results
     # of electrons  =     14.000031219
     EX              =    -13.194531929
     EC              =     -0.488963437
     EX+EC           =    -13.683495366
Transforming the Hamiltonian                       ... done (   0.0 sec)
Diagonalizing the Hamiltonian                      ... done (   0.0 sec)
Back transforming the eigenvectors                 ... done (   0.0 sec)
Now organizing SCF variables                       ... done
                      ------------------
                      INITIAL GUESS DONE (   0.2 sec)
                      ------------------
--------------
SCF ITERATIONS
--------------
ITER       Energy         Delta-E        Max-DP      RMS-DP      [F,P]     Damp
               ***  Starting incremental Fock matrix formation  ***
  0   -113.2823919614   0.000000000000 0.05452546  0.00264188  0.2384773 0.7000
  1   -113.3140893625  -0.031697401041 0.01661222  0.00081432  0.0208289 0.7000
                               ***Turning on DIIS***
  2   -113.3167536044  -0.002664241945 0.02927883  0.00170507  0.0569295 0.0000
  3   -113.3357570957  -0.019003491351 0.01567461  0.00074047  0.0785192 0.0000
  4   -113.3398786932  -0.004121597477 0.00581292  0.00029478  0.0246230 0.0000
  5   -113.3404699869  -0.000591293640 0.00220540  0.00009949  0.0081807 0.0000
                      *** Initiating the SOSCF procedure ***
                           *** Shutting down DIIS ***
                      *** Re-Reading the Fockian *** 
                      *** Removing any level shift *** 
ITER      Energy       Delta-E        Grad      Rot      Max-DP    RMS-DP
  6   -113.34053753  -0.0000675422  0.000366  0.000366  0.000976  0.000036
               *** Restarting incremental Fock matrix formation ***
  7   -113.34054324  -0.0000057062  0.000425  0.001477  0.000932  0.000050
  8   -113.34053423   0.0000090100  0.001610  0.001103  0.000741  0.000036
  9   -113.34054390  -0.0000096770  0.000024  0.000037  0.000058  0.000003
 10   -113.34054391  -0.0000000036  0.000011  0.000013  0.000020  0.000001
                  ***Gradient check signals convergence***
              ***Rediagonalizing the Fockian in SOSCF/NRSCF***

               *****************************************************
               *                     SUCCESS                       *
               *           SCF CONVERGED AFTER  11 CYCLES          *
               *****************************************************

Setting up the final grid:

General Integration Accuracy     IntAcc      ...  4.670
Radial Grid Type                 RadialGrid  ... Gauss-Chebyshev
Angular Grid (max. acc.)         AngularGrid ... Lebedev-302
Angular grid pruning method      GridPruning ... 3 (G Style)
Weight generation scheme         WeightScheme... Becke
Basis function cutoff            BFCut       ...    1.0000e-11
Integration weight cutoff        WCut        ...    1.0000e-14
Grids for H and He will be reduced by one unit

# of grid points (after initial pruning)     ...  12424 (   0.0 sec)
# of grid points (after weights+screening)   ...  12395 (   0.0 sec)
nearest neighbour list constructed           ...    0.0 sec
Grid point re-assignment to atoms done       ...    0.0 sec
Grid point division into batches done        ...    0.1 sec
Reduced shell lists constructed in    0.1 sec

Total number of grid points                  ...    12395
Total number of batches                      ...      194
Average number of points per batch           ...       63
Average number of grid points per atom       ...     6198
Average number of shells per batch           ...    16.60 (75.45%)
Average number of basis functions per batch  ...    48.93 (78.92%)
Average number of large shells per batch     ...    15.23 (91.72%)
Average number of large basis fcns per batch ...    45.15 (92.29%)
Maximum spatial batch extension              ...  18.86, 22.15, 22.15 au
Average spatial batch extension              ...   3.78,  4.31,  4.23 au

Final grid set up in    0.1 sec
Final integration                            ... done (   0.1 sec)
Change in XC energy                          ...     0.000044638
Integrated number of electrons               ...    14.000005379
Previous integrated no of electrons          ...    14.000027740

----------------
TOTAL SCF ENERGY
----------------

Total Energy       :         -113.34049927 Eh           -3084.15178 eV

Components:
Nuclear Repulsion  :           20.32040480 Eh             552.94633 eV
Electronic Energy  :         -133.66090407 Eh           -3637.09811 eV

One Electron Energy:         -194.17762845 Eh           -5283.84190 eV
Two Electron Energy:           60.51672438 Eh            1646.74379 eV

Virial components:
Potential Energy   :         -225.88790895 Eh           -6146.72250 eV
Kinetic Energy     :          112.54740968 Eh            3062.57072 eV
Virial Ratio       :            2.00704672


DFT components:
N(Alpha)           :        7.000002689418 electrons
N(Beta)            :        7.000002689418 electrons
N(Total)           :       14.000005378836 electrons
E(X)               :      -13.298958927664 Eh       
E(C)               :       -0.492395078202 Eh       
E(XC)              :      -13.791354005866 Eh       

---------------
SCF CONVERGENCE
---------------

  Last Energy change         ...   -9.4202e-10  Tolerance :   1.0000e-08
  Last MAX-Density change    ...    1.6440e-06  Tolerance :   1.0000e-07
  Last RMS-Density change    ...    5.3086e-08  Tolerance :   5.0000e-09
  Last Orbital Gradient      ...    6.0894e-07  Tolerance :   1.0000e-05
  Last Orbital Rotation      ...    7.8002e-07  Tolerance :   1.0000e-05

             **** THE GBW FILE WAS UPDATED (orca.gbw) ****
             **** DENSITY FILE WAS UPDATED (orca.scfp.tmp) ****
             **** ENERGY FILE WAS UPDATED (orca.en.tmp) ****
----------------
ORBITAL ENERGIES
----------------

  NO   OCC          E(Eh)            E(eV) 
   0   2.0000     -18.878836      -513.7193 
   1   2.0000     -10.049643      -273.4647 
   2   2.0000      -1.018743       -27.7214 
   3   2.0000      -0.524155       -14.2630 
   4   2.0000      -0.402470       -10.9518 
   5   2.0000      -0.402470       -10.9518 
   6   2.0000      -0.344380        -9.3710 
   7   0.0000      -0.114698        -3.1211 
   8   0.0000      -0.114698        -3.1211 
   9   0.0000       0.099013         2.6943 
  10   0.0000       0.155945         4.2435 
  11   0.0000       0.198660         5.4058 
  12   0.0000       0.198660         5.4058 
  13   0.0000       0.349193         9.5020 
  14   0.0000       0.381161        10.3719 
  15   0.0000       0.441490        12.0136 
  16   0.0000       0.441490        12.0136 
  17   0.0000       0.588817        16.0225 
  18   0.0000       0.589239        16.0340 
  19   0.0000       0.651344        17.7240 
  20   0.0000       0.760398        20.6915 
  21   0.0000       0.760398        20.6915 
  22   0.0000       1.000431        27.2231 
  23   0.0000       1.200989        32.6806 
  24   0.0000       1.300992        35.4018 
  25   0.0000       1.300992        35.4018 
  26   0.0000       1.406573        38.2748 
  27   0.0000       1.406822        38.2816 
  28   0.0000       1.450318        39.4652 
  29   0.0000       1.774864        48.2965 
  30   0.0000       1.774864        48.2965 
  31   0.0000       1.980011        53.8788 
  32   0.0000       2.414998        65.7154 
  33   0.0000       2.414998        65.7154 
  34   0.0000       2.553877        69.4945 
  35   0.0000       2.553877        69.4945 
  36   0.0000       2.663675        72.4823 
  37   0.0000       2.663677        72.4823 
  38   0.0000       2.715473        73.8918 
  39   0.0000       2.833248        77.0966 
  40   0.0000       2.833787        77.1113 
  41   0.0000       2.848754        77.5185 
  42   0.0000       2.880746        78.3891 
  43   0.0000       2.880746        78.3891 
  44   0.0000       3.403929        92.6256 
  45   0.0000       3.403929        92.6256 
  46   0.0000       3.584862        97.5491 
  47   0.0000       4.004743       108.9746 
  48   0.0000       4.951562       134.7388 
  49   0.0000       4.951562       134.7388 
  50   0.0000       5.210876       141.7952 
  51   0.0000       5.211030       141.7993 
  52   0.0000       5.755078       156.6036 
  53   0.0000       5.755078       156.6036 
  54   0.0000       5.947795       161.8477 
  55   0.0000       6.068244       165.1253 
  56   0.0000       6.068807       165.1406 
  57   0.0000       6.540341       177.9717 
  58   0.0000       6.540341       177.9717 
  59   0.0000       6.735878       183.2926 
  60   0.0000      21.505743       585.2010 
  61   0.0000      42.902040      1167.4239 

                    ********************************
                    * MULLIKEN POPULATION ANALYSIS *
                    ********************************

-----------------------
MULLIKEN ATOMIC CHARGES
-----------------------
   0 C :    0.091055
   1 O :   -0.091055
Sum of atomic charges:   -0.0000000

--------------------------------
MULLIKEN REDUCED ORBITAL CHARGES
--------------------------------
  0 C s       :     3.903405  s :     3.903405
      pz      :     0.518482  p :     1.908415
      px      :     0.871451
      py      :     0.518482
      dz2     :     0.005775  d :     0.086852
      dxz     :     0.031876
      dyz     :     0.000000
      dx2y2   :     0.017325
      dxy     :     0.031876
      f0      :     0.001364  f :     0.010273
      f+1     :     0.001124
      f-1     :     0.000227
      f+2     :     0.002273
      f-2     :     0.000000
      f+3     :     0.001874
      f-3     :     0.003410
  1 O s       :     3.848210  s :     3.848210
      pz      :     1.437091  p :     4.215672
      px      :     1.341491
      py      :     1.437091
      dz2     :     0.002233  d :     0.025818
      dxz     :     0.008443
      dyz     :     0.000000
      dx2y2   :     0.006700
      dxy     :     0.008443
      f0      :     0.000177  f :     0.001355
      f+1     :     0.000155
      f-1     :     0.000029
      f+2     :     0.000294
      f-2     :     0.000000
      f+3     :     0.000258
      f-3     :     0.000442


                     *******************************
                     * LOEWDIN POPULATION ANALYSIS *
                     *******************************

----------------------
LOEWDIN ATOMIC CHARGES
----------------------
   0 C :   -0.148897
   1 O :    0.148897

-------------------------------
LOEWDIN REDUCED ORBITAL CHARGES
-------------------------------
  0 C s       :     3.569570  s :     3.569570
      pz      :     0.545699  p :     2.239609
      px      :     1.148211
      py      :     0.545699
      dz2     :     0.033856  d :     0.276064
      dxz     :     0.070320
      dyz     :     0.000000
      dx2y2   :     0.101568
      dxy     :     0.070320
      f0      :     0.007317  f :     0.063653
      f+1     :     0.009237
      f-1     :     0.001219
      f+2     :     0.012194
      f-2     :     0.000000
      f+3     :     0.015395
      f-3     :     0.018291
  1 O s       :     3.513718  s :     3.513718
      pz      :     1.356247  p :     4.284685
      px      :     1.572192
      py      :     1.356247
      dz2     :     0.008497  d :     0.049263
      dxz     :     0.007637
      dyz     :     0.000000
      dx2y2   :     0.025492
      dxy     :     0.007637
      f0      :     0.000220  f :     0.003437
      f+1     :     0.000849
      f-1     :     0.000037
      f+2     :     0.000366
      f-2     :     0.000000
      f+3     :     0.001414
      f-3     :     0.000550


                      *****************************
                      * MAYER POPULATION ANALYSIS *
                      *****************************

  NA   - Mulliken gross atomic population
  ZA   - Total nuclear charge
  QA   - Mulliken gross atomic charge
  VA   - Mayer's total valence
  BVA  - Mayer's bonded valence
  FA   - Mayer's free valence

  ATOM       NA         ZA         QA         VA         BVA        FA
  0 C      5.9089     6.0000     0.0911     2.3792     2.3792    -0.0000
  1 O      8.0911     8.0000    -0.0911     2.3792     2.3792     0.0000

  Mayer bond orders larger than 0.1
B(  0-C ,  1-O ) :   2.3792 

-------
TIMINGS
-------

Total SCF time: 0 days 0 hours 0 min 2 sec 

Total time                  ....       2.298 sec
Sum of individual times     ....       2.428 sec  (105.7%)

Fock matrix formation       ....       2.107 sec  ( 91.7%)
  Coulomb formation         ....       1.528 sec  ( 72.5% of F)
  Split-RI-J                ....       1.444 sec  ( 68.5% of F)
  XC integration            ....       0.545 sec  ( 25.9% of F)
    Basis function eval.    ....       0.090 sec  ( 16.5% of XC)
    Density eval.           ....       0.067 sec  ( 12.2% of XC)
    XC-Functional eval.     ....       0.055 sec  ( 10.1% of XC)
    XC-Potential eval.      ....       0.132 sec  ( 24.2% of XC)
Diagonalization             ....       0.014 sec  (  0.6%)
Density matrix formation    ....       0.001 sec  (  0.0%)
Population analysis         ....       0.004 sec  (  0.2%)
Initial guess               ....       0.158 sec  (  6.9%)
Orbital Transformation      ....       0.000 sec  (  0.0%)
Orbital Orthonormalization  ....       0.000 sec  (  0.0%)
DIIS solution               ....       0.004 sec  (  0.2%)
SOSCF solution              ....       0.017 sec  (  0.7%)
Grid generation             ....       0.124 sec  (  5.4%)

-------------------------   --------------------
FINAL SINGLE POINT ENERGY      -113.340499268815
-------------------------   --------------------


                            ***************************************
                            *     ORCA property calculations      *
                            ***************************************

                                    ---------------------
                                    Active property flags
                                    ---------------------
   (+) Dipole Moment


------------------------------------------------------------------------------
                       ORCA ELECTRIC PROPERTIES CALCULATION
------------------------------------------------------------------------------

Dipole Moment Calculation                       ... on
Quadrupole Moment Calculation                   ... off
Polarizability Calculation                      ... off
GBWName                                         ... orca.gbw
Electron density file                           ... orca.scfp.tmp

-------------
DIPOLE MOMENT
-------------
                                X             Y             Z
Electronic contribution:     -0.07772       0.00000       0.00000
Nuclear contribution   :      0.00793       0.00000       0.00000
                        -----------------------------------------
Total Dipole Moment    :     -0.06979       0.00000       0.00000
                        -----------------------------------------
Magnitude (a.u.)       :      0.06979
Magnitude (Debye)      :      0.17740


Timings for individual modules:

Sum of individual times         ...        2.633 sec (=   0.044 min)
GTO integral calculation        ...        0.155 sec (=   0.003 min)   5.9 %
SCF iterations                  ...        2.478 sec (=   0.041 min)  94.1 %
                             ****ORCA TERMINATED NORMALLY****
TOTAL RUN TIME: 0 days 0 hours 0 minutes 2 seconds 791 msec


------------------------------------------------------
Statistics for LoadLeveler job ll1-ib0.2985073.0:

number of nodes: 1
number of MPI tasks: 8
number of OpenMP threads per task: 1

memory consumption (high water mark): 0.14 GB

average CPU usage: 8.3 %

