
                                 *****************
                                 * O   R   C   A *
                                 *****************

           --- An Ab Initio, DFT and Semiempirical electronic structure package ---

                  #######################################################
                  #                        -***-                        #
                  #  Department of molecular theory and spectroscopy    #
                  #              Directorship: Frank Neese              #
                  # Max Planck Institute for Chemical Energy Conversion #
                  #                  D-45470 Muelheim/Ruhr              #
                  #                       Germany                       #
                  #                                                     #
                  #                  All rights reserved                #
                  #                        -***-                        #
                  #######################################################


                         Program Version 3.0.3 - RELEASE   -


 With contributions from (in alphabetic order):
   Ute Becker             : Parallelization
   Dmytro Bykov           : SCF Hessian
   Dmitry Ganyushin       : Spin-Orbit,Spin-Spin,Magnetic field MRCI
   Andreas Hansen         : Spin unrestricted coupled pair/coupled cluster methods
   Dimitrios Liakos       : Extrapolation schemes; parallel MDCI
   Robert Izsak           : Overlap fitted RIJCOSX, COSX-SCS-MP3
   Christian Kollmar      : KDIIS, OOCD, Brueckner-CCSD(T), CCSD density
   Simone Kossmann        : Meta GGA functionals, TD-DFT gradient, OOMP2, MP2 Hessian
   Taras Petrenko         : DFT Hessian,TD-DFT gradient, ASA and ECA modules, normal mode analysis, Resonance Raman, ABS, FL, XAS/XES, NRVS
   Christoph Reimann      : Effective Core Potentials
   Michael Roemelt        : Restricted open shell CIS
   Christoph Riplinger    : Improved optimizer, TS searches, QM/MM, DLPNO-CCSD
   Barbara Sandhoefer     : DKH picture change effects
   Igor Schapiro          : Molecular dynamics
   Kantharuban Sivalingam : CASSCF convergence, NEVPT2
   Boris Wezisla          : Elementary symmetry handling
   Frank Wennmohs         : Technical directorship


 We gratefully acknowledge several colleagues who have allowed us to
 interface, adapt or use parts of their codes:
   Stefan Grimme, W. Hujo, H. Kruse, T. Risthaus : VdW corrections, initial TS optimization,
                                                   DFT functionals, gCP
   Ed Valeev                                     : LibInt (2-el integral package), F12 methods
   Garnet Chan, S. Sharma, R. Olivares           : DMRG
   Ulf Ekstrom                                   : XCFun DFT Library
   Mihaly Kallay                                 : mrcc  (arbitrary order and MRCC methods)
   Andreas Klamt, Michael Diedenhofen            : otool_cosmo (COSMO solvation model)
   Frank Weinhold                                : gennbo (NPA and NBO analysis)
   Christopher J. Cramer and Donald G. Truhlar   : smd solvation model


 Your calculation uses the libint2 library for the computation of 2-el integrals
 For citations please refer to: http://libint.valeyev.net

 This ORCA versions uses:
   CBLAS   interface :  Fast vector & matrix operations
   LAPACKE interface :  Fast linear algebra routines


Your calculation utilizes the basis: Ahlrichs-TZV
Cite in your paper:
H - Kr: A. Schaefer, H. Horn and R. Ahlrichs, J. Chem. Phys. 97, 2571 (1992).

The def2-TZV basis will be loaded
Cite in your paper:
 	F. Weigend, R. Ahlrichs, Phys. Chem. Chem. Phys. 2005, 7, 3297.

================================================================================
                                        WARNINGS
                       Please study these warnings very carefully!
================================================================================

WARNING: The RI method has been chosen with no auxiliary basis (AUX or GTOAUX in BASIS block)
        Standard TZV/J expansion basis used (GTOAUX=TZV_J)

Now building the actual basis set


INFO   : the flag for use of LIBINT has been found!

================================================================================
                                       INPUT FILE
================================================================================
NAME = orca.inp
|  1> ! LDA def2-TZVP TIGHTSCF 
|  2> #
|  3> %maxcore 1024
|  4> #
|  5> *xyz 0 1
|  6> C      0.000000    0.000000    0.000000
|  7> O      1.250000    0.000000    0.000000
|  8> *
|  9> 
| 10>                          ****END OF INPUT****
================================================================================

                       ****************************
                       * Single Point Calculation *
                       ****************************

---------------------------------
CARTESIAN COORDINATES (ANGSTROEM)
---------------------------------
  C      0.000000    0.000000    0.000000
  O      1.250000    0.000000    0.000000

----------------------------
CARTESIAN COORDINATES (A.U.)
----------------------------
  NO LB      ZA    FRAG    MASS        X           Y           Z
   0 C     6.0000    0    12.011          0.000000000000000          0.000000000000000          0.000000000000000
   1 O     8.0000    0    15.999          2.362157667401565          0.000000000000000          0.000000000000000

--------------------------------
INTERNAL COORDINATES (ANGSTROEM)
--------------------------------
 C      0   0   0   0.000000     0.000     0.000
 O      1   0   0   1.250000     0.000     0.000

---------------------------
INTERNAL COORDINATES (A.U.)
---------------------------
 C      0   0   0   0.000000     0.000     0.000
 O      1   0   0   2.362158     0.000     0.000

---------------------
BASIS SET INFORMATION
---------------------
There are 2 groups of distinct atoms

 Group   1 Type C   : 11s6p2d1f contracted to 5s3p2d1f pattern {62111/411/11/1}
 Group   2 Type O   : 11s6p2d1f contracted to 5s3p2d1f pattern {62111/411/11/1}

Atom   0C    basis set group =>   1
Atom   1O    basis set group =>   2
-------------------------------
AUXILIARY BASIS SET INFORMATION
-------------------------------
There are 2 groups of distinct atoms

 Group   1 Type C   : 12s5p4d2f1g contracted to 6s4p3d1f1g pattern {711111/2111/211/2/1}
 Group   2 Type O   : 12s5p4d2f1g contracted to 6s4p3d1f1g pattern {711111/2111/211/2/1}

Atom   0C    basis set group =>   1
Atom   1O    basis set group =>   2
------------------------------------------------------------------------------
                           ORCA GTO INTEGRAL CALCULATION
                           -- RI-GTO INTEGRALS CHOSEN --
------------------------------------------------------------------------------

                         BASIS SET STATISTICS AND STARTUP INFO

Gaussian basis set:
 # of primitive gaussian shells          ...   40
 # of primitive gaussian functions       ...   92
 # of contracted shells                  ...   22
 # of contracted basis functions         ...   62
 Highest angular momentum                ...    3
 Maximum contraction depth               ...    6
Auxiliary gaussian basis set:
 # of primitive gaussian shells          ...   48
 # of primitive gaussian functions       ...  140
 # of contracted shells                  ...   30
 # of contracted aux-basis functions     ...   98
 Highest angular momentum                ...    4
 Maximum contraction depth               ...    7
Ratio of auxiliary to basis functions    ...  1.58
Integral package used                  ... LIBINT
 One Electron integrals                  ... done
 Ordering auxiliary basis shells         ... done
 Integral threshhold             Thresh  ...  2.500e-11
 Primitive cut-off               TCut    ...  2.500e-12
 Pre-screening matrix                    ... done
 Shell pair data                         ... 
 Ordering of the shell pairs             ... done (   0.000 sec) 252 of 253 pairs
 Determination of significant pairs      ... done (   0.000 sec)
 Creation of shell pair data             ... done (   0.000 sec)
 Storage of shell pair data              ... done (   0.006 sec)
 Shell pair data done in (   0.006 sec)
 Computing two index integrals           ... done
 Cholesky decomposition of the V-matrix  ... done


Timings:
 Total evaluation time                   ...   0.173 sec (  0.003 min)
 One electron matrix time                ...   0.008 sec (  0.000 min) =  4.4%
 Schwartz matrix evaluation time         ...   0.087 sec (  0.001 min) = 50.4%
 Two index repulsion integral time       ...   0.003 sec (  0.000 min) =  1.5%
 Cholesky decomposition of V             ...   0.037 sec (  0.001 min) = 21.3%
 Three index repulsion integral time     ...   0.000 sec (  0.000 min) =  0.0%

-------------------------------------------------------------------------------
                                 ORCA SCF
-------------------------------------------------------------------------------

------------
SCF SETTINGS
------------
Hamiltonian:
 Density Functional     Method          .... DFT(GTOs)
 Exchange Functional    Exchange        .... Slater
   X-Alpha parameter    XAlpha          ....  0.666667
 Correlation Functional Correlation     .... VWN-5
 Gradients option       PostSCFGGA      .... off
 RI-approximation to the Coulomb term is turned on
   Number of auxiliary basis functions  .... 98


General Settings:
 Integral files         IntName         .... orca
 Hartree-Fock type      HFTyp           .... RHF
 Total Charge           Charge          ....    0
 Multiplicity           Mult            ....    1
 Number of Electrons    NEL             ....   14
 Basis Dimension        Dim             ....   62
 Nuclear Repulsion      ENuc            ....     20.3204047987 Eh

Convergence Acceleration:
 DIIS                   CNVDIIS         .... on
   Start iteration      DIISMaxIt       ....    12
   Startup error        DIISStart       ....  0.200000
   # of expansion vecs  DIISMaxEq       ....     5
   Bias factor          DIISBfac        ....   1.050
   Max. coefficient     DIISMaxC        ....  10.000
 Newton-Raphson         CNVNR           .... off
 SOSCF                  CNVSOSCF        .... on
   Start iteration      SOSCFMaxIt      ....   150
   Startup grad/error   SOSCFStart      ....  0.003300
 Level Shifting         CNVShift        .... on
   Level shift para.    LevelShift      ....    0.2500
   Turn off err/grad.   ShiftErr        ....    0.0010
 Zerner damping         CNVZerner       .... off
 Static damping         CNVDamp         .... on
   Fraction old density DampFac         ....    0.7000
   Max. Damping (<1)    DampMax         ....    0.9800
   Min. Damping (>=0)   DampMin         ....    0.0000
   Turn off err/grad.   DampErr         ....    0.1000
 Fernandez-Rico         CNVRico         .... off

SCF Procedure:
 Maximum # iterations   MaxIter         ....   125
 SCF integral mode      SCFMode         .... Direct
   Integral package                     .... LIBINT
 Reset frequeny         DirectResetFreq ....    20
 Integral Threshold     Thresh          ....  2.500e-11 Eh
 Primitive CutOff       TCut            ....  2.500e-12 Eh

Convergence Tolerance:
 Convergence Check Mode ConvCheckMode   .... Total+1el-Energy
 Energy Change          TolE            ....  1.000e-08 Eh
 1-El. energy change                    ....  1.000e-05 Eh
 Orbital Gradient       TolG            ....  1.000e-05
 Orbital Rotation angle TolX            ....  1.000e-05
 DIIS Error             TolErr          ....  5.000e-07


Diagonalization of the overlap matrix:
Smallest eigenvalue                        ... 1.785e-03
Time for diagonalization                   ...    0.004 sec
Threshold for overlap eigenvalues          ... 1.000e-08
Number of eigenvalues below threshold      ... 0
Time for construction of square roots      ...    0.007 sec
Total time needed                          ...    0.011 sec

-------------------
DFT GRID GENERATION
-------------------

General Integration Accuracy     IntAcc      ...  4.340
Radial Grid Type                 RadialGrid  ... Gauss-Chebyshev
Angular Grid (max. acc.)         AngularGrid ... Lebedev-110
Angular grid pruning method      GridPruning ... 3 (G Style)
Weight generation scheme         WeightScheme... Becke
Basis function cutoff            BFCut       ...    1.0000e-11
Integration weight cutoff        WCut        ...    1.0000e-14
Grids for H and He will be reduced by one unit

# of grid points (after initial pruning)     ...   3372 (   0.0 sec)
# of grid points (after weights+screening)   ...   3346 (   0.0 sec)
nearest neighbour list constructed           ...    0.0 sec
Grid point re-assignment to atoms done       ...    0.0 sec
Grid point division into batches done        ...    0.0 sec
Reduced shell lists constructed in    0.0 sec

Total number of grid points                  ...     3346
Total number of batches                      ...       53
Average number of points per batch           ...       63
Average number of grid points per atom       ...     1673
Average number of shells per batch           ...    18.37 (83.50%)
Average number of basis functions per batch  ...    53.81 (86.80%)
Average number of large shells per batch     ...    17.09 (93.04%)
Average number of large basis fcns per batch ...    50.72 (94.25%)
Maximum spatial batch extension              ...  17.69, 25.60, 31.36 au
Average spatial batch extension              ...   5.85,  7.28,  6.79 au

Time for grid setup =    0.076 sec

------------------------------
INITIAL GUESS: MODEL POTENTIAL
------------------------------
Loading Hartree-Fock densities                     ... done
Calculating cut-offs                               ... done
Setting up the integral package                    ... done
Initializing the effective Hamiltonian             ... done
Starting the Coulomb interaction                   ... done (   0.0 sec)
Reading the grid                                   ... done
Mapping shells                                     ... done
Starting the XC term evaluation                    ... done (   0.0 sec)
  promolecular density results
     # of electrons  =     14.000031219
     EX              =    -11.855311425
     EC              =     -0.940847241
     EX+EC           =    -12.796158666
Transforming the Hamiltonian                       ... done (   0.0 sec)
Diagonalizing the Hamiltonian                      ... done (   0.0 sec)
Back transforming the eigenvectors                 ... done (   0.0 sec)
Now organizing SCF variables                       ... done
                      ------------------
                      INITIAL GUESS DONE (   0.2 sec)
                      ------------------
--------------
SCF ITERATIONS
--------------
ITER       Energy         Delta-E        Max-DP      RMS-DP      [F,P]     Damp
               ***  Starting incremental Fock matrix formation  ***
  0   -112.3919479261   0.000000000000 0.05195249  0.00252506  0.2248715 0.7000
  1   -112.4203114430  -0.028363516876 0.01512398  0.00076899  0.0253808 0.7000
                               ***Turning on DIIS***
  2   -112.4228056846  -0.002494241595 0.02908493  0.00167874  0.0550852 0.0000
  3   -112.4394858682  -0.016680183588 0.01596585  0.00073494  0.0788716 0.0000
  4   -112.4437130289  -0.004227160687 0.00619576  0.00029032  0.0232513 0.0000
  5   -112.4442622640  -0.000549235070 0.00213125  0.00009137  0.0071170 0.0000
                      *** Initiating the SOSCF procedure ***
                           *** Shutting down DIIS ***
                      *** Re-Reading the Fockian *** 
                      *** Removing any level shift *** 
ITER      Energy       Delta-E        Grad      Rot      Max-DP    RMS-DP
  6   -112.44431258  -0.0000503142  0.000296  0.000296  0.000955  0.000033
               *** Restarting incremental Fock matrix formation ***
  7   -112.44431607  -0.0000034900  0.000296  0.001029  0.000677  0.000036
  8   -112.44431164   0.0000044292  0.001137  0.000769  0.000526  0.000025
  9   -112.44431641  -0.0000047662  0.000023  0.000027  0.000038  0.000002
 10   -112.44431641  -0.0000000040  0.000012  0.000008  0.000014  0.000001
                  ***Gradient check signals convergence***
              ***Rediagonalizing the Fockian in SOSCF/NRSCF***

               *****************************************************
               *                     SUCCESS                       *
               *           SCF CONVERGED AFTER  11 CYCLES          *
               *****************************************************

Setting up the final grid:

General Integration Accuracy     IntAcc      ...  4.670
Radial Grid Type                 RadialGrid  ... Gauss-Chebyshev
Angular Grid (max. acc.)         AngularGrid ... Lebedev-302
Angular grid pruning method      GridPruning ... 3 (G Style)
Weight generation scheme         WeightScheme... Becke
Basis function cutoff            BFCut       ...    1.0000e-11
Integration weight cutoff        WCut        ...    1.0000e-14
Grids for H and He will be reduced by one unit

# of grid points (after initial pruning)     ...  12424 (   0.0 sec)
# of grid points (after weights+screening)   ...  12395 (   0.0 sec)
nearest neighbour list constructed           ...    0.0 sec
Grid point re-assignment to atoms done       ...    0.0 sec
Grid point division into batches done        ...    0.1 sec
Reduced shell lists constructed in    0.1 sec

Total number of grid points                  ...    12395
Total number of batches                      ...      194
Average number of points per batch           ...       63
Average number of grid points per atom       ...     6198
Average number of shells per batch           ...    16.60 (75.45%)
Average number of basis functions per batch  ...    48.93 (78.92%)
Average number of large shells per batch     ...    15.23 (91.72%)
Average number of large basis fcns per batch ...    45.15 (92.29%)
Maximum spatial batch extension              ...  18.86, 22.15, 22.15 au
Average spatial batch extension              ...   3.78,  4.31,  4.23 au

Final grid set up in    0.1 sec
Final integration                            ... done (   0.1 sec)
Change in XC energy                          ...     0.000039637
Integrated number of electrons               ...    14.000005459
Previous integrated no of electrons          ...    14.000024300

----------------
TOTAL SCF ENERGY
----------------

Total Energy       :         -112.44427677 Eh           -3059.76433 eV

Components:
Nuclear Repulsion  :           20.32040480 Eh             552.94633 eV
Electronic Energy  :         -132.76468157 Eh           -3612.71065 eV

One Electron Energy:         -194.04532389 Eh           -5280.24171 eV
Two Electron Energy:           61.28064232 Eh            1667.53105 eV

Virial components:
Potential Energy   :         -223.82030092 Eh           -6090.46002 eV
Kinetic Energy     :          111.37602415 Eh            3030.69569 eV
Virial Ratio       :            2.00959141


DFT components:
N(Alpha)           :        7.000002729621 electrons
N(Beta)            :        7.000002729621 electrons
N(Total)           :       14.000005459242 electrons
E(X)               :      -11.894519130896 Eh       
E(C)               :       -0.943206310567 Eh       
E(XC)              :      -12.837725441463 Eh       

---------------
SCF CONVERGENCE
---------------

  Last Energy change         ...   -3.0042e-10  Tolerance :   1.0000e-08
  Last MAX-Density change    ...    6.0296e-06  Tolerance :   1.0000e-07
  Last RMS-Density change    ...    2.0610e-07  Tolerance :   5.0000e-09
  Last Orbital Gradient      ...    1.6709e-06  Tolerance :   1.0000e-05
  Last Orbital Rotation      ...    2.3586e-06  Tolerance :   1.0000e-05

             **** THE GBW FILE WAS UPDATED (orca.gbw) ****
             **** DENSITY FILE WAS UPDATED (orca.scfp.tmp) ****
             **** ENERGY FILE WAS UPDATED (orca.en.tmp) ****
----------------
ORBITAL ENERGIES
----------------

  NO   OCC          E(Eh)            E(eV) 
   0   2.0000     -18.722222      -509.4576 
   1   2.0000      -9.941688      -270.5271 
   2   2.0000      -1.014018       -27.5928 
   3   2.0000      -0.522295       -14.2124 
   4   2.0000      -0.408845       -11.1252 
   5   2.0000      -0.408845       -11.1252 
   6   2.0000      -0.343409        -9.3446 
   7   0.0000      -0.120916        -3.2903 
   8   0.0000      -0.120916        -3.2903 
   9   0.0000       0.090761         2.4697 
  10   0.0000       0.150936         4.1072 
  11   0.0000       0.188795         5.1374 
  12   0.0000       0.188795         5.1374 
  13   0.0000       0.339928         9.2499 
  14   0.0000       0.374144        10.1810 
  15   0.0000       0.431474        11.7410 
  16   0.0000       0.431474        11.7410 
  17   0.0000       0.584565        15.9068 
  18   0.0000       0.584872        15.9152 
  19   0.0000       0.645379        17.5617 
  20   0.0000       0.757317        20.6076 
  21   0.0000       0.757317        20.6076 
  22   0.0000       0.994661        27.0661 
  23   0.0000       1.198635        32.6165 
  24   0.0000       1.282945        34.9107 
  25   0.0000       1.282945        34.9107 
  26   0.0000       1.403199        38.1830 
  27   0.0000       1.403531        38.1920 
  28   0.0000       1.441248        39.2183 
  29   0.0000       1.772250        48.2254 
  30   0.0000       1.772250        48.2254 
  31   0.0000       1.972984        53.6876 
  32   0.0000       2.398413        65.2641 
  33   0.0000       2.398413        65.2641 
  34   0.0000       2.554201        69.5033 
  35   0.0000       2.554201        69.5033 
  36   0.0000       2.662503        72.4504 
  37   0.0000       2.662586        72.4526 
  38   0.0000       2.712915        73.8222 
  39   0.0000       2.832225        77.0688 
  40   0.0000       2.832560        77.0779 
  41   0.0000       2.847423        77.4823 
  42   0.0000       2.881179        78.4009 
  43   0.0000       2.881179        78.4009 
  44   0.0000       3.403706        92.6196 
  45   0.0000       3.403706        92.6196 
  46   0.0000       3.584755        97.5462 
  47   0.0000       3.997212       108.7697 
  48   0.0000       4.952987       134.7776 
  49   0.0000       4.952987       134.7776 
  50   0.0000       5.212449       141.8380 
  51   0.0000       5.212959       141.8518 
  52   0.0000       5.756418       156.6401 
  53   0.0000       5.756418       156.6401 
  54   0.0000       5.946591       161.8150 
  55   0.0000       6.068098       165.1213 
  56   0.0000       6.069214       165.1517 
  57   0.0000       6.540736       177.9825 
  58   0.0000       6.540736       177.9825 
  59   0.0000       6.734943       183.2671 
  60   0.0000      21.656468       589.3025 
  61   0.0000      43.137698      1173.8364 

                    ********************************
                    * MULLIKEN POPULATION ANALYSIS *
                    ********************************

-----------------------
MULLIKEN ATOMIC CHARGES
-----------------------
   0 C :    0.063038
   1 O :   -0.063038
Sum of atomic charges:   -0.0000000

--------------------------------
MULLIKEN REDUCED ORBITAL CHARGES
--------------------------------
  0 C s       :     3.916494  s :     3.916494
      pz      :     0.520600  p :     1.918979
      px      :     0.877778
      py      :     0.520600
      dz2     :     0.006083  d :     0.090853
      dxz     :     0.033260
      dyz     :     0.000000
      dx2y2   :     0.018250
      dxy     :     0.033260
      f0      :     0.001404  f :     0.010636
      f+1     :     0.001181
      f-1     :     0.000234
      f+2     :     0.002339
      f-2     :     0.000000
      f+3     :     0.001969
      f-3     :     0.003509
  1 O s       :     3.839734  s :     3.839734
      pz      :     1.433504  p :     4.197216
      px      :     1.330207
      py      :     1.433504
      dz2     :     0.001999  d :     0.024882
      dxz     :     0.008443
      dyz     :     0.000000
      dx2y2   :     0.005997
      dxy     :     0.008443
      f0      :     0.000169  f :     0.001207
      f+1     :     0.000115
      f-1     :     0.000028
      f+2     :     0.000281
      f-2     :     0.000000
      f+3     :     0.000192
      f-3     :     0.000422


                     *******************************
                     * LOEWDIN POPULATION ANALYSIS *
                     *******************************

----------------------
LOEWDIN ATOMIC CHARGES
----------------------
   0 C :   -0.158315
   1 O :    0.158315

-------------------------------
LOEWDIN REDUCED ORBITAL CHARGES
-------------------------------
  0 C s       :     3.571529  s :     3.571529
      pz      :     0.548032  p :     2.246390
      px      :     1.150325
      py      :     0.548032
      dz2     :     0.033861  d :     0.277527
      dxz     :     0.071042
      dyz     :     0.000000
      dx2y2   :     0.101582
      dxy     :     0.071042
      f0      :     0.007241  f :     0.062869
      f+1     :     0.009094
      f-1     :     0.001207
      f+2     :     0.012068
      f-2     :     0.000000
      f+3     :     0.015156
      f-3     :     0.018103
  1 O s       :     3.508826  s :     3.508826
      pz      :     1.353282  p :     4.280329
      px      :     1.573765
      py      :     1.353282
      dz2     :     0.008401  d :     0.049089
      dxz     :     0.007742
      dyz     :     0.000000
      dx2y2   :     0.025204
      dxy     :     0.007742
      f0      :     0.000222  f :     0.003441
      f+1     :     0.000847
      f-1     :     0.000037
      f+2     :     0.000370
      f-2     :     0.000000
      f+3     :     0.001411
      f-3     :     0.000555


                      *****************************
                      * MAYER POPULATION ANALYSIS *
                      *****************************

  NA   - Mulliken gross atomic population
  ZA   - Total nuclear charge
  QA   - Mulliken gross atomic charge
  VA   - Mayer's total valence
  BVA  - Mayer's bonded valence
  FA   - Mayer's free valence

  ATOM       NA         ZA         QA         VA         BVA        FA
  0 C      5.9370     6.0000     0.0630     2.3873     2.3873     0.0000
  1 O      8.0630     8.0000    -0.0630     2.3873     2.3873     0.0000

  Mayer bond orders larger than 0.1
B(  0-C ,  1-O ) :   2.3873 

-------
TIMINGS
-------

Total SCF time: 0 days 0 hours 0 min 2 sec 

Total time                  ....       2.368 sec
Sum of individual times     ....       2.572 sec  (108.6%)

Fock matrix formation       ....       2.088 sec  ( 88.2%)
  Coulomb formation         ....       1.609 sec  ( 77.1% of F)
  Split-RI-J                ....       1.448 sec  ( 69.4% of F)
  XC integration            ....       0.446 sec  ( 21.4% of F)
    Basis function eval.    ....       0.044 sec  (  9.8% of XC)
    Density eval.           ....       0.043 sec  (  9.5% of XC)
    XC-Functional eval.     ....       0.030 sec  (  6.7% of XC)
    XC-Potential eval.      ....       0.062 sec  ( 14.0% of XC)
Diagonalization             ....       0.014 sec  (  0.6%)
Density matrix formation    ....       0.001 sec  (  0.0%)
Population analysis         ....       0.022 sec  (  0.9%)
Initial guess               ....       0.243 sec  ( 10.2%)
Orbital Transformation      ....       0.000 sec  (  0.0%)
Orbital Orthonormalization  ....       0.000 sec  (  0.0%)
DIIS solution               ....       0.006 sec  (  0.2%)
SOSCF solution              ....       0.016 sec  (  0.7%)
Grid generation             ....       0.184 sec  (  7.8%)

-------------------------   --------------------
FINAL SINGLE POINT ENERGY      -112.444276772258
-------------------------   --------------------


                            ***************************************
                            *     ORCA property calculations      *
                            ***************************************

                                    ---------------------
                                    Active property flags
                                    ---------------------
   (+) Dipole Moment


------------------------------------------------------------------------------
                       ORCA ELECTRIC PROPERTIES CALCULATION
------------------------------------------------------------------------------

Dipole Moment Calculation                       ... on
Quadrupole Moment Calculation                   ... off
Polarizability Calculation                      ... off
GBWName                                         ... orca.gbw
Electron density file                           ... orca.scfp.tmp

-------------
DIPOLE MOMENT
-------------
                                X             Y             Z
Electronic contribution:     -0.07282      -0.00000      -0.00000
Nuclear contribution   :      0.00793       0.00000       0.00000
                        -----------------------------------------
Total Dipole Moment    :     -0.06489      -0.00000      -0.00000
                        -----------------------------------------
Magnitude (a.u.)       :      0.06489
Magnitude (Debye)      :      0.16494


Timings for individual modules:

Sum of individual times         ...        2.868 sec (=   0.048 min)
GTO integral calculation        ...        0.232 sec (=   0.004 min)   8.1 %
SCF iterations                  ...        2.636 sec (=   0.044 min)  91.9 %
                             ****ORCA TERMINATED NORMALLY****
TOTAL RUN TIME: 0 days 0 hours 0 minutes 3 seconds 56 msec


------------------------------------------------------
Statistics for LoadLeveler job ll1-ib0.2985078.0:

number of nodes: 1
number of MPI tasks: 8
number of OpenMP threads per task: 1

memory consumption (high water mark): 0.14 GB

average CPU usage: 7.8 %

